 Entering Link 1 = C:\G09W\l1.exe PID=     14728.
  
 Copyright (c) 1988,1990,1992,1993,1995,1998,2003,2009,2011,
            Gaussian, Inc.  All Rights Reserved.
  
 This is part of the Gaussian(R) 09 program.  It is based on
 the Gaussian(R) 03 system (copyright 2003, Gaussian, Inc.),
 the Gaussian(R) 98 system (copyright 1998, Gaussian, Inc.),
 the Gaussian(R) 94 system (copyright 1995, Gaussian, Inc.),
 the Gaussian 92(TM) system (copyright 1992, Gaussian, Inc.),
 the Gaussian 90(TM) system (copyright 1990, Gaussian, Inc.),
 the Gaussian 88(TM) system (copyright 1988, Gaussian, Inc.),
 the Gaussian 86(TM) system (copyright 1986, Carnegie Mellon
 University), and the Gaussian 82(TM) system (copyright 1983,
 Carnegie Mellon University). Gaussian is a federally registered
 trademark of Gaussian, Inc.
  
 This software contains proprietary and confidential information,
 including trade secrets, belonging to Gaussian, Inc.
  
 This software is provided under written license and may be
 used, copied, transmitted, or stored only in accord with that
 written license.
  
 The following legend is applicable only to US Government
 contracts under FAR:
  
                    RESTRICTED RIGHTS LEGEND
  
 Use, reproduction and disclosure by the US Government is
 subject to restrictions as set forth in subparagraphs (a)
 and (c) of the Commercial Computer Software - Restricted
 Rights clause in FAR 52.227-19.
  
 Gaussian, Inc.
 340 Quinnipiac St., Bldg. 40, Wallingford CT 06492
  
  
 ---------------------------------------------------------------
 Warning -- This program may not be used in any manner that
 competes with the business of Gaussian, Inc. or will provide
 assistance to any competitor of Gaussian, Inc.  The licensee
 of this program is prohibited from giving any competitor of
 Gaussian, Inc. access to this program.  By using this program,
 the user acknowledges that Gaussian, Inc. is engaged in the
 business of creating and licensing software in the field of
 computational chemistry and represents and warrants to the
 licensee that it is not a competitor of Gaussian, Inc. and that
 it will not use this program in any manner prohibited above.
 ---------------------------------------------------------------
  

 Cite this work as:
 Gaussian 09, Revision C.01,
 M. J. Frisch, G. W. Trucks, H. B. Schlegel, G. E. Scuseria, 
 M. A. Robb, J. R. Cheeseman, G. Scalmani, V. Barone, B. Mennucci, 
 G. A. Petersson, H. Nakatsuji, M. Caricato, X. Li, H. P. Hratchian, 
 A. F. Izmaylov, J. Bloino, G. Zheng, J. L. Sonnenberg, M. Hada, 
 M. Ehara, K. Toyota, R. Fukuda, J. Hasegawa, M. Ishida, T. Nakajima, 
 Y. Honda, O. Kitao, H. Nakai, T. Vreven, J. A. Montgomery, Jr., 
 J. E. Peralta, F. Ogliaro, M. Bearpark, J. J. Heyd, E. Brothers, 
 K. N. Kudin, V. N. Staroverov, T. Keith, R. Kobayashi, J. Normand, 
 K. Raghavachari, A. Rendell, J. C. Burant, S. S. Iyengar, J. Tomasi, 
 M. Cossi, N. Rega, J. M. Millam, M. Klene, J. E. Knox, J. B. Cross, 
 V. Bakken, C. Adamo, J. Jaramillo, R. Gomperts, R. E. Stratmann, 
 O. Yazyev, A. J. Austin, R. Cammi, C. Pomelli, J. W. Ochterski, 
 R. L. Martin, K. Morokuma, V. G. Zakrzewski, G. A. Voth, 
 P. Salvador, J. J. Dannenberg, S. Dapprich, A. D. Daniels, 
 O. Farkas, J. B. Foresman, J. V. Ortiz, J. Cioslowski, 
 and D. J. Fox, Gaussian, Inc., Wallingford CT, 2010.
 
 ******************************************
 Gaussian 09:  EM64W-G09RevC.01 23-Sep-2011
                11-Apr-2023 
 ******************************************
 %nprocshared=4
 Will use up to    4 processors via shared memory.
 %chk=C:\Users\aki\Desktop\Gaussian_jobs\phosphole\phosphole_MP2_6-31_opt.chk
 ---------------------------------
 # opt mp2/6-31g geom=connectivity
 ---------------------------------
 1/18=20,19=15,38=1,57=2/1,3;
 2/9=110,12=2,17=6,18=5,40=1/2;
 3/5=1,6=6,11=9,16=1,25=1,30=1,71=1/1,2,3;
 4//1;
 5/5=2,38=5/2;
 8/6=4,10=2/1;
 9/15=2,16=-3/6;
 10/5=1/2;
 6/7=2,8=2,9=2,10=2/1;
 7/12=2/1,2,3,16;
 1/18=20,19=15/3(2);
 2/9=110/2;
 99//99;
 2/9=110/2;
 3/5=1,6=6,11=9,16=1,25=1,30=1,71=1/1,2,3;
 4/5=5,16=3/1;
 5/5=2,38=5/2;
 8/6=4,10=2/1;
 9/15=2,16=-3/6;
 10/5=1/2;
 7/12=2/1,2,3,16;
 1/18=20,19=15/3(-8);
 2/9=110/2;
 6/7=2,8=2,9=2,10=2/1;
 99//99;
 -------------------
 Title Card Required
 -------------------
 Charge =  0 Multiplicity = 1
 Symbolic Z-Matrix:
 C                    -0.43434   1.22274   0.01957 
 C                    -0.04711   2.67056   0.01957 
 C                    -1.12293   3.47612   0.01928 
 C                    -2.40283   2.69624   0.01844 
 H                    -0.02897   0.70356  -0.88439 
 H                    -0.02857   0.70338   0.92315 
 H                     1.00268   2.96705   0.01985 
 H                    -1.13428   4.56692   0.01956 
 H                    -3.01445   2.93849  -0.88607 
 H                    -3.0162    2.93931   0.92155 
 P                    -1.97006   1.22274   0.01957 
 H                    -2.437     0.59952   1.12231 
 

 GradGradGradGradGradGradGradGradGradGradGradGradGradGradGradGradGradGrad
 Berny optimization.
 Initialization pass.
                           ----------------------------
                           !    Initial Parameters    !
                           ! (Angstroms and Degrees)  !
 --------------------------                            --------------------------
 ! Name  Definition              Value          Derivative Info.                !
 --------------------------------------------------------------------------------
 ! R1    R(1,2)                  1.4987         estimate D2E/DX2                !
 ! R2    R(1,5)                  1.1185         estimate D2E/DX2                !
 ! R3    R(1,6)                  1.1184         estimate D2E/DX2                !
 ! R4    R(1,11)                 1.5357         estimate D2E/DX2                !
 ! R5    R(2,3)                  1.344          estimate D2E/DX2                !
 ! R6    R(2,7)                  1.0909         estimate D2E/DX2                !
 ! R7    R(3,4)                  1.4988         estimate D2E/DX2                !
 ! R8    R(3,8)                  1.0909         estimate D2E/DX2                !
 ! R9    R(4,9)                  1.1184         estimate D2E/DX2                !
 ! R10   R(4,10)                 1.1184         estimate D2E/DX2                !
 ! R11   R(4,11)                 1.5357         estimate D2E/DX2                !
 ! R12   R(11,12)                1.35           estimate D2E/DX2                !
 ! A1    A(2,1,5)              110.7798         estimate D2E/DX2                !
 ! A2    A(2,1,6)              110.7856         estimate D2E/DX2                !
 ! A3    A(2,1,11)             104.9736         estimate D2E/DX2                !
 ! A4    A(5,1,6)              107.8129         estimate D2E/DX2                !
 ! A5    A(5,1,11)             111.2493         estimate D2E/DX2                !
 ! A6    A(6,1,11)             111.2725         estimate D2E/DX2                !
 ! A7    A(1,2,3)              111.8518         estimate D2E/DX2                !
 ! A8    A(1,2,7)              120.7447         estimate D2E/DX2                !
 ! A9    A(3,2,7)              127.4035         estimate D2E/DX2                !
 ! A10   A(2,3,4)              111.8196         estimate D2E/DX2                !
 ! A11   A(2,3,8)              127.4219         estimate D2E/DX2                !
 ! A12   A(4,3,8)              120.7585         estimate D2E/DX2                !
 ! A13   A(3,4,9)              110.7776         estimate D2E/DX2                !
 ! A14   A(3,4,10)             110.78           estimate D2E/DX2                !
 ! A15   A(3,4,11)             104.9874         estimate D2E/DX2                !
 ! A16   A(9,4,10)             107.8215         estimate D2E/DX2                !
 ! A17   A(9,4,11)             111.2546         estimate D2E/DX2                !
 ! A18   A(10,4,11)            111.2522         estimate D2E/DX2                !
 ! A19   A(1,11,4)             106.3677         estimate D2E/DX2                !
 ! A20   A(1,11,12)            110.2356         estimate D2E/DX2                !
 ! A21   A(4,11,12)            110.2473         estimate D2E/DX2                !
 ! D1    D(5,1,2,3)            120.1694         estimate D2E/DX2                !
 ! D2    D(5,1,2,7)            -59.8346         estimate D2E/DX2                !
 ! D3    D(6,1,2,3)           -120.2265         estimate D2E/DX2                !
 ! D4    D(6,1,2,7)             59.7695         estimate D2E/DX2                !
 ! D5    D(11,1,2,3)            -0.0132         estimate D2E/DX2                !
 ! D6    D(11,1,2,7)           179.9828         estimate D2E/DX2                !
 ! D7    D(2,1,11,4)             0.0439         estimate D2E/DX2                !
 ! D8    D(2,1,11,12)         -119.4734         estimate D2E/DX2                !
 ! D9    D(5,1,11,4)          -119.8266         estimate D2E/DX2                !
 ! D10   D(5,1,11,12)          120.6561         estimate D2E/DX2                !
 ! D11   D(6,1,11,4)           119.9337         estimate D2E/DX2                !
 ! D12   D(6,1,11,12)            0.4164         estimate D2E/DX2                !
 ! D13   D(1,2,3,4)             -0.0248         estimate D2E/DX2                !
 ! D14   D(1,2,3,8)            179.9769         estimate D2E/DX2                !
 ! D15   D(7,2,3,4)            179.9795         estimate D2E/DX2                !
 ! D16   D(7,2,3,8)             -0.0188         estimate D2E/DX2                !
 ! D17   D(2,3,4,9)           -120.144          estimate D2E/DX2                !
 ! D18   D(2,3,4,10)           120.2461         estimate D2E/DX2                !
 ! D19   D(2,3,4,11)             0.0519         estimate D2E/DX2                !
 ! D20   D(8,3,4,9)             59.8544         estimate D2E/DX2                !
 ! D21   D(8,3,4,10)           -59.7555         estimate D2E/DX2                !
 ! D22   D(8,3,4,11)          -179.9497         estimate D2E/DX2                !
 ! D23   D(3,4,11,1)            -0.057          estimate D2E/DX2                !
 ! D24   D(3,4,11,12)          119.4526         estimate D2E/DX2                !
 ! D25   D(9,4,11,1)           119.822          estimate D2E/DX2                !
 ! D26   D(9,4,11,12)         -120.6684         estimate D2E/DX2                !
 ! D27   D(10,4,11,1)         -119.9374         estimate D2E/DX2                !
 ! D28   D(10,4,11,12)          -0.4278         estimate D2E/DX2                !
 --------------------------------------------------------------------------------
 Trust Radius=3.00D-01 FncErr=1.00D-07 GrdErr=1.00D-07
 Number of steps in this run=     71 maximum allowed number of steps=    100.
 GradGradGradGradGradGradGradGradGradGradGradGradGradGradGradGradGradGrad

                          Input orientation:                          
 ---------------------------------------------------------------------
 Center     Atomic      Atomic             Coordinates (Angstroms)
 Number     Number       Type             X           Y           Z
 ---------------------------------------------------------------------
      1          6           0       -0.434337    1.222745    0.019566
      2          6           0       -0.047109    2.670565    0.019566
      3          6           0       -1.122925    3.476122    0.019278
      4          6           0       -2.402832    2.696241    0.018436
      5          1           0       -0.028967    0.703565   -0.884392
      6          1           0       -0.028573    0.703378    0.923148
      7          1           0        1.002678    2.967053    0.019848
      8          1           0       -1.134282    4.566918    0.019560
      9          1           0       -3.014449    2.938486   -0.886070
     10          1           0       -3.016197    2.939315    0.921546
     11         15           0       -1.970062    1.222745    0.019566
     12          1           0       -2.437001    0.599516    1.122315
 ---------------------------------------------------------------------
                    Distance matrix (angstroms):
                    1          2          3          4          5
     1  C    0.000000
     2  C    1.498709   0.000000
     3  C    2.356239   1.343987   0.000000
     4  C    2.458895   2.355863   1.498792   0.000000
     5  H    1.118487   2.164846   3.114552   3.228171   0.000000
     6  H    1.118413   2.164862   3.114915   3.229104   1.807540
     7  H    2.260005   1.090852   2.185713   3.416261   2.646756
     8  H    3.416638   2.185887   1.090855   2.260233   4.118780
     9  H    3.228145   3.114011   2.164849   1.118432   3.729340
    10  H    3.228960   3.114687   2.164885   1.118441   4.145303
    11  P    1.535725   2.407059   2.407353   1.535735   2.203302
    12  H    2.369627   3.349161   3.349380   2.369803   3.136292
                    6          7          8          9         10
     6  H    0.000000
     7  H    2.646442   0.000000
     8  H    4.118981   2.669488   0.000000
     9  H    4.145411   4.118108   2.647071   0.000000
    10  H    3.731664   4.118882   2.646559   1.807617   0.000000
    11  P    2.203539   3.446708   3.447031   2.203336   2.203311
    12  H    2.418880   4.318802   4.318960   3.136532   2.418767
                   11         12
    11  P    0.000000
    12  H    1.350000   0.000000
 Stoichiometry    C4H7P
 Framework group  C1[X(C4H7P)]
 Deg. of freedom    30
 Full point group                 C1      NOp   1
 Largest Abelian subgroup         C1      NOp   1
 Largest concise Abelian subgroup C1      NOp   1
                         Standard orientation:                         
 ---------------------------------------------------------------------
 Center     Atomic      Atomic             Coordinates (Angstroms)
 Number     Number       Type             X           Y           Z
 ---------------------------------------------------------------------
      1          6           0        0.108508    1.229427   -0.029070
      2          6           0       -1.281489    0.672575    0.033814
      3          6           0       -1.282422   -0.671412    0.034055
      4          6           0        0.107162   -1.229467   -0.029247
      5          1           0        0.240661    1.864648   -0.940137
      6          1           0        0.322003    1.865731    0.865572
      7          1           0       -2.146690    1.335793    0.072871
      8          1           0       -2.148322   -1.333694    0.073625
      9          1           0        0.238486   -1.864691   -0.940364
     10          1           0        0.320299   -1.865932    0.865400
     11         15           0        1.027211   -0.000514   -0.070052
     12          1           0        1.854844   -0.000880    0.996496
 ---------------------------------------------------------------------
 Rotational constants (GHZ):      7.3044854      5.6204072      3.3648484
 Standard basis: 6-31G (6D, 7F)
 There are    63 symmetry adapted basis functions of A   symmetry.
 Integral buffers will be    131072 words long.
 Raffenetti 1 integral format.
 Two-electron integral symmetry is turned on.
    63 basis functions,   162 primitive gaussians,    63 cartesian basis functions
    23 alpha electrons       23 beta electrons
       nuclear repulsion energy       236.8641815936 Hartrees.



 Warning!  P  atom   11 may be hypervalent but has no d functions.



 NAtoms=   12 NActive=   12 NUniq=   12 SFac= 1.00D+00 NAtFMM=   60 NAOKFM=F Big=F
 One-electron integrals computed using PRISM.
 NBasis=    63 RedAO= T  NBF=    63
 NBsUse=    63 1.00D-06 NBFU=    63
 Harris functional with IExCor=  205 diagonalized for initial guess.
 ExpMin= 9.98D-02 ExpMax= 1.94D+04 ExpMxC= 2.91D+03 IAcc=2 IRadAn=         4 AccDes= 0.00D+00
 HarFok:  IExCor=  205 AccDes= 0.00D+00 IRadAn=         4 IDoV= 1
 ScaDFX=  1.000000  1.000000  1.000000  1.000000
 FoFCou: FMM=F IPFlag=           0 FMFlag=      100000 FMFlg1=           0
         NFxFlg=           0 DoJE=T BraDBF=F KetDBF=T FulRan=T
         Omega=  0.000000  0.000000  1.000000  0.000000  0.000000 ICntrl=     500 IOpCl=  0
         NMat0=    1 NMatS0=    1 NMatT0=    0 NMatD0=    1 NMtDS0=    0 NMtDT0=    0
         I1Cent=           4 NGrid=           0.
 Petite list used in FoFCou.
 Initial guess orbital symmetries:
       Occupied  (A) (A) (A) (A) (A) (A) (A) (A) (A) (A) (A) (A)
                 (A) (A) (A) (A) (A) (A) (A) (A) (A) (A) (A)
       Virtual   (A) (A) (A) (A) (A) (A) (A) (A) (A) (A) (A) (A)
                 (A) (A) (A) (A) (A) (A) (A) (A) (A) (A) (A) (A)
                 (A) (A) (A) (A) (A) (A) (A) (A) (A) (A) (A) (A)
                 (A) (A) (A) (A)
 The electronic state of the initial guess is 1-A.
 Requested convergence on RMS density matrix=1.00D-08 within 128 cycles.
 Requested convergence on MAX density matrix=1.00D-06.
 Requested convergence on             energy=1.00D-06.
 No special actions if energy rises.
 Keep R1 ints in memory in canonical form, NReq=2864076.
 SCF Done:  E(RHF) =  -495.949391166     A.U. after   12 cycles
             Convg  =    0.2756D-08             -V/T =  1.9956
 ExpMin= 9.98D-02 ExpMax= 1.94D+04 ExpMxC= 2.91D+03 IAcc=3 IRadAn=         5 AccDes= 0.00D+00
 HarFok:  IExCor=  205 AccDes= 0.00D+00 IRadAn=         5 IDoV=-2
 ScaDFX=  1.000000  1.000000  1.000000  1.000000
 Range of M.O.s used for correlation:    10    63
 NBasis=    63 NAE=    23 NBE=    23 NFC=     9 NFV=     0
 NROrb=     54 NOA=    14 NOB=    14 NVA=    40 NVB=    40
 Fully direct method using O(ONN) memory.
 JobTyp=1 Pass  1:  I=  10 to  23 NPSUse=  4 ParTrn=T ParDer=T DoDerP=T.
 Spin components of T(2) and E(2):
     alpha-alpha T2 =       0.1953608381D-01 E2=     -0.4668046661D-01
     alpha-beta  T2 =       0.1309162059D+00 E2=     -0.3157282848D+00
     beta-beta   T2 =       0.1953608381D-01 E2=     -0.4668046661D-01
 ANorm=    0.1081660008D+01
 E2 =    -0.4090892180D+00 EUMP2 =    -0.49635848038392D+03
          IDoAtm=111111111111
          Differentiating once with respect to electric field.
                with respect to dipole field.
          Differentiating once with respect to nuclear coordinates.
          Keep R1 ints in memory in canonical form, NReq=2834059.
          There are     1 degrees of freedom in the 1st order CPHF.  IDoFFX=0.
 LinEq1:  Iter=  0 NonCon=     1 RMS=4.61D-03 Max=6.59D-02
 AX will form     1 AO Fock derivatives at one time.
 LinEq1:  Iter=  1 NonCon=     1 RMS=9.24D-04 Max=7.59D-03
 LinEq1:  Iter=  2 NonCon=     1 RMS=2.48D-04 Max=2.26D-03
 LinEq1:  Iter=  3 NonCon=     1 RMS=4.36D-05 Max=4.31D-04
 LinEq1:  Iter=  4 NonCon=     1 RMS=1.09D-05 Max=8.93D-05
 LinEq1:  Iter=  5 NonCon=     1 RMS=2.72D-06 Max=2.29D-05
 LinEq1:  Iter=  6 NonCon=     1 RMS=7.80D-07 Max=8.18D-06
 LinEq1:  Iter=  7 NonCon=     1 RMS=1.37D-07 Max=1.85D-06
 LinEq1:  Iter=  8 NonCon=     1 RMS=1.97D-08 Max=3.61D-07
 LinEq1:  Iter=  9 NonCon=     1 RMS=2.91D-09 Max=2.70D-08
 LinEq1:  Iter= 10 NonCon=     1 RMS=1.08D-09 Max=1.75D-08
 LinEq1:  Iter= 11 NonCon=     1 RMS=3.21D-10 Max=2.57D-09
 LinEq1:  Iter= 12 NonCon=     0 RMS=6.03D-11 Max=4.20D-10
 Linear equations converged to 1.000D-10 1.000D-09 after    12 iterations.
 End of Minotr Frequency-dependent properties file   721 does not exist.
 End of Minotr Frequency-dependent properties file   722 does not exist.

 **********************************************************************

            Population analysis using the SCF density.

 **********************************************************************

 Orbital symmetries:
       Occupied  (A) (A) (A) (A) (A) (A) (A) (A) (A) (A) (A) (A)
                 (A) (A) (A) (A) (A) (A) (A) (A) (A) (A) (A)
       Virtual   (A) (A) (A) (A) (A) (A) (A) (A) (A) (A) (A) (A)
                 (A) (A) (A) (A) (A) (A) (A) (A) (A) (A) (A) (A)
                 (A) (A) (A) (A) (A) (A) (A) (A) (A) (A) (A) (A)
                 (A) (A) (A) (A)
 The electronic state is 1-A.
 Alpha  occ. eigenvalues --  -79.87351 -11.25280 -11.25122 -11.21830 -11.21829
 Alpha  occ. eigenvalues --   -7.46256  -5.35752  -5.35595  -5.35010  -1.19075
 Alpha  occ. eigenvalues --   -1.00466  -0.97989  -0.75262  -0.74738  -0.69307
 Alpha  occ. eigenvalues --   -0.64127  -0.57658  -0.55294  -0.52090  -0.50712
 Alpha  occ. eigenvalues --   -0.50057  -0.36175  -0.27086
 Alpha virt. eigenvalues --    0.16805   0.19297   0.23299   0.23414   0.26618
 Alpha virt. eigenvalues --    0.28387   0.30975   0.32041   0.32381   0.35287
 Alpha virt. eigenvalues --    0.37828   0.47948   0.49324   0.55420   0.56080
 Alpha virt. eigenvalues --    0.59829   0.72173   0.76922   0.80617   0.86170
 Alpha virt. eigenvalues --    0.89202   0.90045   0.92756   0.95862   0.98805
 Alpha virt. eigenvalues --    0.99705   1.04600   1.12275   1.13147   1.14401
 Alpha virt. eigenvalues --    1.16528   1.19851   1.20111   1.21344   1.23401
 Alpha virt. eigenvalues --    1.26941   1.35453   1.57948   1.64372   1.72034
          Condensed to atoms (all electrons):
              1          2          3          4          5          6
     1  C    5.710130   0.298327  -0.089550  -0.124391   0.399677   0.382444
     2  C    0.298327   5.130493   0.625667  -0.089597  -0.050982  -0.016425
     3  C   -0.089550   0.625667   5.130195   0.298309  -0.002192   0.001685
     4  C   -0.124391  -0.089597   0.298309   5.710156   0.004516   0.005648
     5  H    0.399677  -0.050982  -0.002192   0.004516   0.526639  -0.034104
     6  H    0.382444  -0.016425   0.001685   0.005648  -0.034104   0.525508
     7  H   -0.025768   0.374457  -0.019312   0.003858   0.000079  -0.003201
     8  H    0.003847  -0.019295   0.374454  -0.025744  -0.000037  -0.000174
     9  H    0.004516  -0.002206  -0.050979   0.399697   0.001071  -0.000476
    10  H    0.005657   0.001690  -0.016421   0.382389  -0.000476   0.000884
    11  P    0.209536  -0.096313  -0.096277   0.209642  -0.072702  -0.066690
    12  H   -0.066324   0.000265   0.000261  -0.066294   0.002985  -0.010314
              7          8          9         10         11         12
     1  C   -0.025768   0.003847   0.004516   0.005657   0.209536  -0.066324
     2  C    0.374457  -0.019295  -0.002206   0.001690  -0.096313   0.000265
     3  C   -0.019312   0.374454  -0.050979  -0.016421  -0.096277   0.000261
     4  C    0.003858  -0.025744   0.399697   0.382389   0.209642  -0.066294
     5  H    0.000079  -0.000037   0.001071  -0.000476  -0.072702   0.002985
     6  H   -0.003201  -0.000174  -0.000476   0.000884  -0.066690  -0.010314
     7  H    0.456999   0.000981  -0.000038  -0.000174   0.006208  -0.000068
     8  H    0.000981   0.456901   0.000080  -0.003197   0.006203  -0.000068
     9  H   -0.000038   0.000080   0.526592  -0.034088  -0.072698   0.002983
    10  H   -0.000174  -0.003197  -0.034088   0.525582  -0.066702  -0.010316
    11  P    0.006208   0.006203  -0.072698  -0.066702  14.134672   0.411486
    12  H   -0.000068  -0.000068   0.002983  -0.010316   0.411486   0.794317
 Mulliken atomic charges:
              1
     1  C   -0.708102
     2  C   -0.156081
     3  C   -0.155840
     4  C   -0.708189
     5  H    0.225527
     6  H    0.215215
     7  H    0.205980
     8  H    0.206049
     9  H    0.225545
    10  H    0.215172
    11  P    0.493636
    12  H   -0.058911
 Sum of Mulliken atomic charges =   0.00000
 Mulliken charges with hydrogens summed into heavy atoms:
              1
     1  C   -0.267361
     2  C    0.049898
     3  C    0.050210
     4  C   -0.267472
    11  P    0.434725
 Sum of Mulliken charges with hydrogens summed into heavy atoms =   0.00000
 Electronic spatial extent (au):  <R**2>=            423.3160
 Charge=              0.0000 electrons
 Dipole moment (field-independent basis, Debye):
    X=             -1.8235    Y=              0.0009    Z=              1.2561  Tot=              2.2142
 Quadrupole moment (field-independent basis, Debye-Ang):
   XX=            -41.5583   YY=            -35.4543   ZZ=            -40.4872
   XY=              0.0048   XZ=              2.7260   YZ=             -0.0017
 Traceless Quadrupole moment (field-independent basis, Debye-Ang):
   XX=             -2.3917   YY=              3.7123   ZZ=             -1.3207
   XY=              0.0048   XZ=              2.7260   YZ=             -0.0017
 Octapole moment (field-independent basis, Debye-Ang**2):
  XXX=            -14.4305  YYY=              0.0045  ZZZ=              0.9916  XYY=             -1.3742
  XXY=              0.0028  XXZ=              6.0210  XZZ=             -0.5919  YZZ=              0.0003
  YYZ=              0.5817  XYZ=             -0.0010
 Hexadecapole moment (field-independent basis, Debye-Ang**3):
 XXXX=           -298.1060 YYYY=           -239.4671 ZZZZ=            -69.8256 XXXY=              0.0312
 XXXZ=             10.5119 YYYX=             -0.0035 YYYZ=             -0.0002 ZZZX=              4.0015
 ZZZY=             -0.0003 XXYY=            -79.6342 XXZZ=            -69.9759 YYZZ=            -46.3367
 XXYZ=             -0.0092 YYXZ=              0.8071 ZZXY=              0.0096
 N-N= 2.368641815936D+02 E-N=-1.648498173034D+03  KE= 4.981522755994D+02
 Calling FoFJK, ICntrl=      2127 FMM=F ISym2X=0 I1Cent= 0 IOpClX= 0 NMat=1 NMatS=1 NMatT=0.
 ***** Axes restored to original set *****
 -------------------------------------------------------------------
 Center     Atomic                   Forces (Hartrees/Bohr)
 Number     Number              X              Y              Z
 -------------------------------------------------------------------
      1        6           0.283619328   -0.030534118    0.006152580
      2        6           0.030720694    0.017107478    0.001721742
      3        6           0.007693424    0.034094135    0.001693991
      4        6          -0.109242753    0.263544259    0.006051234
      5        1           0.008783138    0.006215280    0.015010730
      6        1           0.009744453    0.003631401   -0.014332514
      7        1          -0.003602182    0.003207873   -0.000974119
      8        1           0.004098509   -0.002566512   -0.000996773
      9        1           0.003457471    0.010179767    0.014991708
     10        1           0.000724818    0.010385763   -0.014359890
     11       15          -0.227831704   -0.304407829   -0.055689969
     12        1          -0.008165194   -0.010857499    0.040731280
 -------------------------------------------------------------------
 Cartesian Forces:  Max     0.304407829 RMS     0.093715690

 GradGradGradGradGradGradGradGradGradGradGradGradGradGradGradGradGradGrad
 Berny optimization.
 Internal  Forces:  Max     0.292444427 RMS     0.056555159
 Search for a local minimum.
 Step number   1 out of a maximum of   71
 All quantities printed in internal units (Hartrees-Bohrs-Radians)
 Mixed Optimization -- RFO/linear search
 Second derivative matrix not updated -- first step.
 ITU=  0
     Eigenvalues ---    0.01325   0.01638   0.01927   0.03655   0.05882
     Eigenvalues ---    0.05884   0.06964   0.07749   0.07853   0.09092
     Eigenvalues ---    0.10254   0.10271   0.11362   0.12140   0.16000
     Eigenvalues ---    0.16000   0.21970   0.22400   0.25638   0.30855
     Eigenvalues ---    0.31718   0.31722   0.31723   0.31725   0.32237
     Eigenvalues ---    0.34714   0.34714   0.52612   0.62929   0.63462
 RFO step:  Lambda=-2.34019710D-01 EMin= 1.32472323D-02
 Linear search not attempted -- first point.
 Maximum step size (   0.300) exceeded in Quadratic search.
    -- Step size scaled by   0.568
 Iteration  1 RMS(Cart)=  0.05418215 RMS(Int)=  0.00089962
 Iteration  2 RMS(Cart)=  0.00123905 RMS(Int)=  0.00038413
 Iteration  3 RMS(Cart)=  0.00000080 RMS(Int)=  0.00038413
 Variable       Old X    -DE/DX   Delta X   Delta X   Delta X     New X
                                 (Linear)    (Quad)   (Total)
    R1        2.83215   0.04365   0.00000   0.03799   0.03768   2.86983
    R2        2.11363  -0.01183   0.00000  -0.01220  -0.01220   2.10144
    R3        2.11349  -0.00973   0.00000  -0.01003  -0.01003   2.10347
    R4        2.90210   0.29244   0.00000   0.19446   0.19507   3.09717
    R5        2.53977   0.04593   0.00000   0.02075   0.01997   2.55974
    R6        2.06141  -0.00259   0.00000  -0.00254  -0.00254   2.05887
    R7        2.83231   0.04363   0.00000   0.03798   0.03767   2.86998
    R8        2.06142  -0.00261   0.00000  -0.00255  -0.00255   2.05887
    R9        2.11353  -0.01181   0.00000  -0.01217  -0.01217   2.10136
   R10        2.11355  -0.00974   0.00000  -0.01003  -0.01003   2.10351
   R11        2.90212   0.29240   0.00000   0.19443   0.19504   3.09716
   R12        2.55113   0.04111   0.00000   0.04762   0.04762   2.59875
    A1        1.93347  -0.00210   0.00000  -0.00786  -0.00796   1.92551
    A2        1.93357  -0.00388   0.00000  -0.00929  -0.00949   1.92409
    A3        1.83214  -0.00696   0.00000   0.00042   0.00075   1.83288
    A4        1.88169  -0.00814   0.00000  -0.01359  -0.01377   1.86792
    A5        1.94167   0.00872   0.00000   0.01303   0.01287   1.95454
    A6        1.94207   0.01268   0.00000   0.01780   0.01776   1.95983
    A7        1.95218   0.04733   0.00000   0.02979   0.02872   1.98090
    A8        2.10739  -0.01947   0.00000  -0.00885  -0.00832   2.09908
    A9        2.22361  -0.02786   0.00000  -0.02094  -0.02040   2.20321
   A10        1.95162   0.04748   0.00000   0.02997   0.02889   1.98051
   A11        2.22393  -0.02793   0.00000  -0.02103  -0.02050   2.20344
   A12        2.10763  -0.01954   0.00000  -0.00893  -0.00840   2.09924
   A13        1.93343  -0.00209   0.00000  -0.00784  -0.00795   1.92549
   A14        1.93347  -0.00385   0.00000  -0.00925  -0.00944   1.92404
   A15        1.83238  -0.00703   0.00000   0.00033   0.00066   1.83303
   A16        1.88184  -0.00816   0.00000  -0.01362  -0.01380   1.86804
   A17        1.94176   0.00872   0.00000   0.01301   0.01285   1.95461
   A18        1.94172   0.01273   0.00000   0.01787   0.01784   1.95955
   A19        1.85647  -0.08082   0.00000  -0.06050  -0.05905   1.79742
   A20        1.92397   0.01869   0.00000   0.00797   0.00727   1.93124
   A21        1.92418   0.01865   0.00000   0.00792   0.00722   1.93140
    D1        2.09735   0.00882   0.00000   0.01692   0.01696   2.11431
    D2       -1.04431   0.00751   0.00000   0.01532   0.01530  -1.02901
    D3       -2.09835  -0.00528   0.00000  -0.01130  -0.01118  -2.10953
    D4        1.04317  -0.00659   0.00000  -0.01289  -0.01285   1.03033
    D5       -0.00023   0.00366   0.00000   0.00528   0.00540   0.00517
    D6        3.14129   0.00235   0.00000   0.00368   0.00374  -3.13816
    D7        0.00077  -0.00575   0.00000  -0.00825  -0.00803  -0.00726
    D8       -2.08520   0.00938   0.00000   0.01360   0.01346  -2.07174
    D9       -2.09137  -0.00368   0.00000  -0.00602  -0.00581  -2.09718
   D10        2.10585   0.01145   0.00000   0.01583   0.01568   2.12153
   D11        2.09324  -0.00784   0.00000  -0.00965  -0.00943   2.08381
   D12        0.00727   0.00728   0.00000   0.01220   0.01206   0.01933
   D13       -0.00043   0.00000   0.00000   0.00002   0.00003  -0.00041
   D14        3.14119  -0.00142   0.00000  -0.00171  -0.00177   3.13942
   D15        3.14123   0.00142   0.00000   0.00175   0.00181  -3.14014
   D16       -0.00033   0.00000   0.00000   0.00002   0.00002  -0.00031
   D17       -2.09691  -0.00881   0.00000  -0.01691  -0.01695  -2.11386
   D18        2.09869   0.00528   0.00000   0.01130   0.01119   2.10988
   D19        0.00091  -0.00369   0.00000  -0.00533  -0.00545  -0.00455
   D20        1.04466  -0.00750   0.00000  -0.01531  -0.01528   1.02938
   D21       -1.04293   0.00659   0.00000   0.01290   0.01286  -1.03007
   D22       -3.14071  -0.00238   0.00000  -0.00373  -0.00378   3.13869
   D23       -0.00099   0.00577   0.00000   0.00827   0.00805   0.00705
   D24        2.08484  -0.00935   0.00000  -0.01356  -0.01342   2.07143
   D25        2.09129   0.00367   0.00000   0.00601   0.00579   2.09708
   D26       -2.10606  -0.01145   0.00000  -0.01582  -0.01567  -2.12173
   D27       -2.09330   0.00784   0.00000   0.00964   0.00941  -2.08389
   D28       -0.00747  -0.00728   0.00000  -0.01219  -0.01206  -0.01952
         Item               Value     Threshold  Converged?
 Maximum Force            0.292444     0.000450     NO 
 RMS     Force            0.056555     0.000300     NO 
 Maximum Displacement     0.152581     0.001800     NO 
 RMS     Displacement     0.053706     0.001200     NO 
 Predicted change in Energy=-1.059750D-01
 GradGradGradGradGradGradGradGradGradGradGradGradGradGradGradGradGradGrad

                          Input orientation:                          
 ---------------------------------------------------------------------
 Center     Atomic      Atomic             Coordinates (Angstroms)
 Number     Number       Type             X           Y           Z
 ---------------------------------------------------------------------
      1          6           0       -0.389839    1.193652    0.019474
      2          6           0       -0.039832    2.671404    0.013065
      3          6           0       -1.124151    3.483239    0.012760
      4          6           0       -2.443324    2.730722    0.018330
      5          1           0        0.043661    0.690184   -0.872274
      6          1           0        0.045043    0.698762    0.916674
      7          1           0        1.002386    2.988908    0.010884
      8          1           0       -1.113222    4.572687    0.010563
      9          1           0       -3.047815    3.004378   -0.873986
     10          1           0       -3.041424    3.008678    0.915034
     11         15           0       -2.028069    1.145256    0.015600
     12          1           0       -2.497471    0.518774    1.146244
 ---------------------------------------------------------------------
                    Distance matrix (angstroms):
                    1          2          3          4          5
     1  C    0.000000
     2  C    1.518649   0.000000
     3  C    2.404468   1.354557   0.000000
     4  C    2.565032   2.404229   1.518726   0.000000
     5  H    1.112033   2.171642   3.154081   3.337973   0.000000
     6  H    1.113106   2.171412   3.152363   3.335844   1.788969
     7  H    2.271851   1.089510   2.183238   3.455377   2.642585
     8  H    3.455610   2.183358   1.089505   2.272019   4.146277
     9  H    3.337939   3.153679   2.171659   1.111991   3.861699
    10  H    3.335753   3.152278   2.171461   1.113131   4.252956
    11  P    1.638950   2.506436   2.506639   1.638947   2.299451
    12  H    2.483382   3.458020   3.458157   2.483513   3.249792
                    6          7          8          9         10
     6  H    0.000000
     7  H    2.642296   0.000000
     8  H    4.143660   2.642754   0.000000
     9  H    4.253011   4.145763   2.642852   0.000000
    10  H    3.855126   4.143703   2.642377   1.789036   0.000000
    11  P    2.304146   3.547214   3.547429   2.299474   2.303955
    12  H    2.559195   4.431659   4.431719   3.249990   2.559095
                   11         12
    11  P    0.000000
    12  H    1.375200   0.000000
 Stoichiometry    C4H7P
 Framework group  C1[X(C4H7P)]
 Deg. of freedom    30
 Full point group                 C1      NOp   1
 Largest Abelian subgroup         C1      NOp   1
 Largest concise Abelian subgroup C1      NOp   1
                         Standard orientation:                         
 ---------------------------------------------------------------------
 Center     Atomic      Atomic             Coordinates (Angstroms)
 Number     Number       Type             X           Y           Z
 ---------------------------------------------------------------------
      1          6           0        0.077334    1.282517   -0.025182
      2          6           0       -1.314453    0.677584    0.032107
      3          6           0       -1.314989   -0.676973    0.032332
      4          6           0        0.076601   -1.282515   -0.025337
      5          1           0        0.180017    1.930889   -0.922783
      6          1           0        0.253838    1.927524    0.864659
      7          1           0       -2.192192    1.321937    0.069718
      8          1           0       -2.193075   -1.320817    0.070423
      9          1           0        0.178778   -1.930810   -0.922999
     10          1           0        0.253028   -1.927602    0.864493
     11         15           0        1.096195   -0.000289   -0.075052
     12          1           0        1.929724   -0.000464    1.018750
 ---------------------------------------------------------------------
 Rotational constants (GHZ):      6.8804399      5.2164558      3.1303057
 Standard basis: 6-31G (6D, 7F)
 There are    63 symmetry adapted basis functions of A   symmetry.
 Integral buffers will be    131072 words long.
 Raffenetti 1 integral format.
 Two-electron integral symmetry is turned on.
    63 basis functions,   162 primitive gaussians,    63 cartesian basis functions
    23 alpha electrons       23 beta electrons
       nuclear repulsion energy       229.0512517922 Hartrees.



 Warning!  P  atom   11 may be hypervalent but has no d functions.



 NAtoms=   12 NActive=   12 NUniq=   12 SFac= 1.00D+00 NAtFMM=   60 NAOKFM=F Big=F
 One-electron integrals computed using PRISM.
 NBasis=    63 RedAO= T  NBF=    63
 NBsUse=    63 1.00D-06 NBFU=    63
 Initial guess read from the read-write file.
 B after Tr=     0.000000    0.000000    0.000000
         Rot=    1.000000    0.000000    0.000000    0.000000 Ang=   0.00 deg.
 Initial guess orbital symmetries:
       Occupied  (A) (A) (A) (A) (A) (A) (A) (A) (A) (A) (A) (A)
                 (A) (A) (A) (A) (A) (A) (A) (A) (A) (A) (A)
       Virtual   (A) (A) (A) (A) (A) (A) (A) (A) (A) (A) (A) (A)
                 (A) (A) (A) (A) (A) (A) (A) (A) (A) (A) (A) (A)
                 (A) (A) (A) (A) (A) (A) (A) (A) (A) (A) (A) (A)
                 (A) (A) (A) (A)
 Harris functional with IExCor=  205 diagonalized for initial guess.
 ExpMin= 9.98D-02 ExpMax= 1.94D+04 ExpMxC= 2.91D+03 IAcc=2 IRadAn=         4 AccDes= 0.00D+00
 HarFok:  IExCor=  205 AccDes= 0.00D+00 IRadAn=         4 IDoV= 1
 ScaDFX=  1.000000  1.000000  1.000000  1.000000
 FoFCou: FMM=F IPFlag=           0 FMFlag=      100000 FMFlg1=           0
         NFxFlg=           0 DoJE=T BraDBF=F KetDBF=T FulRan=T
         Omega=  0.000000  0.000000  1.000000  0.000000  0.000000 ICntrl=     500 IOpCl=  0
         NMat0=    1 NMatS0=    1 NMatT0=    0 NMatD0=    1 NMtDS0=    0 NMtDT0=    0
         I1Cent=           4 NGrid=           0.
 Petite list used in FoFCou.
 Requested convergence on RMS density matrix=1.00D-08 within 128 cycles.
 Requested convergence on MAX density matrix=1.00D-06.
 Requested convergence on             energy=1.00D-06.
 No special actions if energy rises.
 Keep R1 ints in memory in canonical form, NReq=2864076.
 SCF Done:  E(RHF) =  -496.048965465     A.U. after   11 cycles
             Convg  =    0.5750D-08             -V/T =  1.9975
 ExpMin= 9.98D-02 ExpMax= 1.94D+04 ExpMxC= 2.91D+03 IAcc=3 IRadAn=         5 AccDes= 0.00D+00
 HarFok:  IExCor=  205 AccDes= 0.00D+00 IRadAn=         5 IDoV=-2
 ScaDFX=  1.000000  1.000000  1.000000  1.000000
 Range of M.O.s used for correlation:    10    63
 NBasis=    63 NAE=    23 NBE=    23 NFC=     9 NFV=     0
 NROrb=     54 NOA=    14 NOB=    14 NVA=    40 NVB=    40
 Fully direct method using O(ONN) memory.
 JobTyp=1 Pass  1:  I=  10 to  23 NPSUse=  4 ParTrn=T ParDer=T DoDerP=T.
 Spin components of T(2) and E(2):
     alpha-alpha T2 =       0.1981665355D-01 E2=     -0.4663123944D-01
     alpha-beta  T2 =       0.1339888801D+00 E2=     -0.3185222427D+00
     beta-beta   T2 =       0.1981665355D-01 E2=     -0.4663123944D-01
 ANorm=    0.1083338445D+01
 E2 =    -0.4117847216D+00 EUMP2 =    -0.49646075018650D+03
          IDoAtm=111111111111
          Differentiating once with respect to electric field.
                with respect to dipole field.
          Differentiating once with respect to nuclear coordinates.
          Keep R1 ints in memory in canonical form, NReq=2834059.
          There are     1 degrees of freedom in the 1st order CPHF.  IDoFFX=0.
 LinEq1:  Iter=  0 NonCon=     1 RMS=4.66D-03 Max=6.74D-02
 AX will form     1 AO Fock derivatives at one time.
 LinEq1:  Iter=  1 NonCon=     1 RMS=9.92D-04 Max=8.15D-03
 LinEq1:  Iter=  2 NonCon=     1 RMS=2.47D-04 Max=2.11D-03
 LinEq1:  Iter=  3 NonCon=     1 RMS=4.26D-05 Max=3.64D-04
 LinEq1:  Iter=  4 NonCon=     1 RMS=1.14D-05 Max=7.86D-05
 LinEq1:  Iter=  5 NonCon=     1 RMS=2.88D-06 Max=2.27D-05
 LinEq1:  Iter=  6 NonCon=     1 RMS=8.10D-07 Max=9.43D-06
 LinEq1:  Iter=  7 NonCon=     1 RMS=1.50D-07 Max=1.94D-06
 LinEq1:  Iter=  8 NonCon=     1 RMS=2.14D-08 Max=3.37D-07
 LinEq1:  Iter=  9 NonCon=     1 RMS=3.41D-09 Max=2.60D-08
 LinEq1:  Iter= 10 NonCon=     1 RMS=6.69D-10 Max=6.26D-09
 LinEq1:  Iter= 11 NonCon=     1 RMS=1.12D-10 Max=1.67D-09
 LinEq1:  Iter= 12 NonCon=     0 RMS=4.96D-11 Max=6.11D-10
 Linear equations converged to 1.000D-10 1.000D-09 after    12 iterations.
 End of Minotr Frequency-dependent properties file   721 does not exist.
 End of Minotr Frequency-dependent properties file   722 does not exist.
 Calling FoFJK, ICntrl=      2127 FMM=F ISym2X=0 I1Cent= 0 IOpClX= 0 NMat=1 NMatS=1 NMatT=0.
 ***** Axes restored to original set *****
 -------------------------------------------------------------------
 Center     Atomic                   Forces (Hartrees/Bohr)
 Number     Number              X              Y              Z
 -------------------------------------------------------------------
      1        6           0.164689335   -0.008310005    0.009897134
      2        6           0.009689052    0.010712522    0.001560274
      3        6           0.007495245    0.012178561    0.001539273
      4        6          -0.054397127    0.155705673    0.009876969
      5        1           0.001575397    0.003917107    0.009686295
      6        1           0.004623955    0.002586602   -0.009031104
      7        1          -0.001880233    0.002505202   -0.000890725
      8        1           0.002937815   -0.001103828   -0.000912054
      9        1           0.003292738    0.002618682    0.009674090
     10        1           0.001171951    0.005176819   -0.009053787
     11       15          -0.137263500   -0.183440848   -0.053414855
     12        1          -0.001934628   -0.002546487    0.031068490
 -------------------------------------------------------------------
 Cartesian Forces:  Max     0.183440848 RMS     0.055725722

 GradGradGradGradGradGradGradGradGradGradGradGradGradGradGradGradGradGrad
 Berny optimization.
 Using GEDIIS/GDIIS optimizer.
 Internal  Forces:  Max     0.165690555 RMS     0.031984828
 Search for a local minimum.
 Step number   2 out of a maximum of   71
 All quantities printed in internal units (Hartrees-Bohrs-Radians)
 Mixed Optimization -- RFO/linear search
 Update second derivatives using D2CorX and points    1    2
 DE= -1.02D-01 DEPred=-1.06D-01 R= 9.65D-01
 SS=  1.41D+00  RLast= 3.05D-01 DXNew= 5.0454D-01 9.1597D-01
 Trust test= 9.65D-01 RLast= 3.05D-01 DXMaxT set to 5.05D-01
 ITU=  1  0
 Use linear search instead of GDIIS.
 Linear search step of   0.600 exceeds DXMaxT=   0.505 but not scaled.
 Quartic linear search produced a step of  2.00000.
 Iteration  1 RMS(Cart)=  0.06414889 RMS(Int)=  0.03295296
 Iteration  2 RMS(Cart)=  0.04057654 RMS(Int)=  0.00221592
 Iteration  3 RMS(Cart)=  0.00063173 RMS(Int)=  0.00217276
 Iteration  4 RMS(Cart)=  0.00000083 RMS(Int)=  0.00217276
 Variable       Old X    -DE/DX   Delta X   Delta X   Delta X     New X
                                 (Linear)    (Quad)   (Total)
    R1        2.86983   0.02137   0.07536   0.00000   0.07352   2.94335
    R2        2.10144  -0.00893  -0.02439   0.00000  -0.02439   2.07705
    R3        2.10347  -0.00662  -0.02005   0.00000  -0.02005   2.08341
    R4        3.09717   0.16569   0.39013   0.00000   0.39322   3.49039
    R5        2.55974   0.01695   0.03995   0.00000   0.03581   2.59555
    R6        2.05887  -0.00107  -0.00507   0.00000  -0.00507   2.05380
    R7        2.86998   0.02135   0.07534   0.00000   0.07350   2.94348
    R8        2.05887  -0.00107  -0.00510   0.00000  -0.00510   2.05377
    R9        2.10136  -0.00891  -0.02434   0.00000  -0.02434   2.07702
   R10        2.10351  -0.00663  -0.02007   0.00000  -0.02007   2.08345
   R11        3.09716   0.16568   0.39008   0.00000   0.39318   3.49034
   R12        2.59875   0.02736   0.09524   0.00000   0.09524   2.69399
    A1        1.92551   0.00010  -0.01592   0.00000  -0.01643   1.90908
    A2        1.92409  -0.00302  -0.01897   0.00000  -0.01994   1.90414
    A3        1.83288  -0.00210   0.00149   0.00000   0.00294   1.83582
    A4        1.86792  -0.00405  -0.02754   0.00000  -0.02863   1.83929
    A5        1.95454   0.00151   0.02574   0.00000   0.02500   1.97954
    A6        1.95983   0.00758   0.03553   0.00000   0.03535   1.99518
    A7        1.98090   0.02555   0.05744   0.00000   0.05145   2.03235
    A8        2.09908  -0.00974  -0.01663   0.00000  -0.01364   2.08543
    A9        2.20321  -0.01581  -0.04081   0.00000  -0.03782   2.16539
   A10        1.98051   0.02564   0.05778   0.00000   0.05180   2.03231
   A11        2.20344  -0.01586  -0.04099   0.00000  -0.03801   2.16543
   A12        2.09924  -0.00978  -0.01679   0.00000  -0.01381   2.08543
   A13        1.92549   0.00011  -0.01589   0.00000  -0.01640   1.90908
   A14        1.92404  -0.00300  -0.01888   0.00000  -0.01985   1.90419
   A15        1.83303  -0.00214   0.00132   0.00000   0.00277   1.83581
   A16        1.86804  -0.00407  -0.02760   0.00000  -0.02869   1.83935
   A17        1.95461   0.00150   0.02571   0.00000   0.02496   1.97958
   A18        1.95955   0.00762   0.03567   0.00000   0.03548   1.99504
   A19        1.79742  -0.04699  -0.11810   0.00000  -0.10927   1.68815
   A20        1.93124   0.00698   0.01454   0.00000   0.01053   1.94177
   A21        1.93140   0.00696   0.01444   0.00000   0.01044   1.94184
    D1        2.11431   0.00467   0.03392   0.00000   0.03403   2.14834
    D2       -1.02901   0.00346   0.03059   0.00000   0.03035  -0.99866
    D3       -2.10953  -0.00211  -0.02237   0.00000  -0.02172  -2.13125
    D4        1.03033  -0.00333  -0.02570   0.00000  -0.02539   1.00493
    D5        0.00517   0.00407   0.01080   0.00000   0.01135   0.01652
    D6       -3.13816   0.00285   0.00747   0.00000   0.00768  -3.13048
    D7       -0.00726  -0.00571  -0.01605   0.00000  -0.01474  -0.02200
    D8       -2.07174   0.00889   0.02693   0.00000   0.02601  -2.04573
    D9       -2.09718  -0.00535  -0.01162   0.00000  -0.01034  -2.10752
   D10        2.12153   0.00925   0.03136   0.00000   0.03041   2.15193
   D11        2.08381  -0.00656  -0.01885   0.00000  -0.01754   2.06627
   D12        0.01933   0.00804   0.02412   0.00000   0.02321   0.04254
   D13       -0.00041   0.00001   0.00005   0.00000   0.00006  -0.00035
   D14        3.13942  -0.00128  -0.00353   0.00000  -0.00379   3.13563
   D15       -3.14014   0.00130   0.00361   0.00000   0.00388  -3.13626
   D16       -0.00031   0.00001   0.00003   0.00000   0.00003  -0.00028
   D17       -2.11386  -0.00467  -0.03390   0.00000  -0.03401  -2.14787
   D18        2.10988   0.00212   0.02238   0.00000   0.02173   2.13161
   D19       -0.00455  -0.00409  -0.01091   0.00000  -0.01145  -0.01600
   D20        1.02938  -0.00346  -0.03056   0.00000  -0.03032   0.99906
   D21       -1.03007   0.00333   0.02572   0.00000   0.02542  -1.00464
   D22        3.13869  -0.00288  -0.00756   0.00000  -0.00776   3.13093
   D23        0.00705   0.00572   0.01610   0.00000   0.01478   0.02183
   D24        2.07143  -0.00887  -0.02683   0.00000  -0.02592   2.04551
   D25        2.09708   0.00534   0.01158   0.00000   0.01030   2.10738
   D26       -2.12173  -0.00925  -0.03135   0.00000  -0.03039  -2.15213
   D27       -2.08389   0.00655   0.01882   0.00000   0.01750  -2.06639
   D28       -0.01952  -0.00803  -0.02411   0.00000  -0.02319  -0.04272
         Item               Value     Threshold  Converged?
 Maximum Force            0.165691     0.000450     NO 
 RMS     Force            0.031985     0.000300     NO 
 Maximum Displacement     0.308213     0.001800     NO 
 RMS     Displacement     0.103410     0.001200     NO 
 Predicted change in Energy=-3.580065D-02
 GradGradGradGradGradGradGradGradGradGradGradGradGradGradGradGradGradGrad

                          Input orientation:                          
 ---------------------------------------------------------------------
 Center     Atomic      Atomic             Coordinates (Angstroms)
 Number     Number       Type             X           Y           Z
 ---------------------------------------------------------------------
      1          6           0       -0.305794    1.142650    0.019801
      2          6           0       -0.025479    2.674643   -0.000107
      3          6           0       -1.125059    3.497715   -0.000442
      4          6           0       -2.516016    2.796961    0.018638
      5          1           0        0.178176    0.671975   -0.847560
      6          1           0        0.181323    0.698236    0.903377
      7          1           0        1.001397    3.030534   -0.007583
      8          1           0       -1.073005    4.583248   -0.007966
      9          1           0       -3.103305    3.128274   -0.849329
     10          1           0       -3.080423    3.139352    0.901671
     11         15           0       -2.146248    0.987382    0.007387
     12          1           0       -2.619623    0.355674    1.194482
 ---------------------------------------------------------------------
                    Distance matrix (angstroms):
                    1          2          3          4          5
     1  C    0.000000
     2  C    1.557555   0.000000
     3  C    2.493579   1.373508   0.000000
     4  C    2.760766   2.493610   1.557621   0.000000
     5  H    1.099125   2.184108   3.225033   3.539002   0.000000
     6  H    1.102494   2.182941   3.218789   3.530304   1.751136
     7  H    2.296434   1.086825   2.177183   3.525258   2.635537
     8  H    3.525209   2.177187   1.086806   2.296478   4.191470
     9  H    3.538948   3.224899   2.184160   1.099110   4.098966
    10  H    3.530309   3.218982   2.183044   1.102513   4.445922
    11  P    1.847033   2.710086   2.710104   1.847006   2.496670
    12  H    2.711643   3.678891   3.678856   2.711683   3.478169
                    6          7          8          9         10
     6  H    0.000000
     7  H    2.634764   0.000000
     8  H    4.182965   2.591151   0.000000
     9  H    4.445879   4.191261   2.635709   0.000000
    10  H    4.074069   4.183281   2.634768   1.751184   0.000000
    11  P    2.510775   3.752648   3.752644   2.496665   2.510658
    12  H    2.836793   4.659573   4.659430   3.478278   2.836712
                   11         12
    11  P    0.000000
    12  H    1.425599   0.000000
 Stoichiometry    C4H7P
 Framework group  C1[X(C4H7P)]
 Deg. of freedom    30
 Full point group                 C1      NOp   1
 Largest Abelian subgroup         C1      NOp   1
 Largest concise Abelian subgroup C1      NOp   1
                         Standard orientation:                         
 ---------------------------------------------------------------------
 Center     Atomic      Atomic             Coordinates (Angstroms)
 Number     Number       Type             X           Y           Z
 ---------------------------------------------------------------------
      1          6           0        0.012139    1.380378   -0.016633
      2          6           0       -1.381701    0.686667    0.027542
      3          6           0       -1.381624   -0.686841    0.027730
      4          6           0        0.012361   -1.380388   -0.016747
      5          1           0        0.059108    2.049549   -0.887311
      6          1           0        0.116330    2.037002    0.862846
      7          1           0       -2.281408    1.295432    0.061029
      8          1           0       -2.281216   -1.295719    0.061632
      9          1           0        0.059300   -2.049417   -0.887517
     10          1           0        0.116852   -2.037067    0.862678
     11         15           0        1.237569    0.000078   -0.084653
     12          1           0        2.080444    0.000155    1.065084
 ---------------------------------------------------------------------
 Rotational constants (GHZ):      6.1864773      4.4928434      2.7270293
 Standard basis: 6-31G (6D, 7F)
 There are    63 symmetry adapted basis functions of A   symmetry.
 Integral buffers will be    131072 words long.
 Raffenetti 1 integral format.
 Two-electron integral symmetry is turned on.
    63 basis functions,   162 primitive gaussians,    63 cartesian basis functions
    23 alpha electrons       23 beta electrons
       nuclear repulsion energy       215.5100402323 Hartrees.
 NAtoms=   12 NActive=   12 NUniq=   12 SFac= 1.00D+00 NAtFMM=   60 NAOKFM=F Big=F
 One-electron integrals computed using PRISM.
 NBasis=    63 RedAO= T  NBF=    63
 NBsUse=    63 1.00D-06 NBFU=    63
 Initial guess read from the read-write file.
 B after Tr=     0.000000    0.000000    0.000000
         Rot=    1.000000    0.000000    0.000000    0.000000 Ang=   0.00 deg.
 Initial guess orbital symmetries:
       Occupied  (A) (A) (A) (A) (A) (A) (A) (A) (A) (A) (A) (A)
                 (A) (A) (A) (A) (A) (A) (A) (A) (A) (A) (A)
       Virtual   (A) (A) (A) (A) (A) (A) (A) (A) (A) (A) (A) (A)
                 (A) (A) (A) (A) (A) (A) (A) (A) (A) (A) (A) (A)
                 (A) (A) (A) (A) (A) (A) (A) (A) (A) (A) (A) (A)
                 (A) (A) (A) (A)
 Harris functional with IExCor=  205 diagonalized for initial guess.
 ExpMin= 9.98D-02 ExpMax= 1.94D+04 ExpMxC= 2.91D+03 IAcc=2 IRadAn=         4 AccDes= 0.00D+00
 HarFok:  IExCor=  205 AccDes= 0.00D+00 IRadAn=         4 IDoV= 1
 ScaDFX=  1.000000  1.000000  1.000000  1.000000
 FoFCou: FMM=F IPFlag=           0 FMFlag=      100000 FMFlg1=           0
         NFxFlg=           0 DoJE=T BraDBF=F KetDBF=T FulRan=T
         Omega=  0.000000  0.000000  1.000000  0.000000  0.000000 ICntrl=     500 IOpCl=  0
         NMat0=    1 NMatS0=    1 NMatT0=    0 NMatD0=    1 NMtDS0=    0 NMtDT0=    0
         I1Cent=           4 NGrid=           0.
 Petite list used in FoFCou.
 Requested convergence on RMS density matrix=1.00D-08 within 128 cycles.
 Requested convergence on MAX density matrix=1.00D-06.
 Requested convergence on             energy=1.00D-06.
 No special actions if energy rises.
 Keep R1 ints in memory in canonical form, NReq=2864076.
 SCF Done:  E(RHF) =  -496.118631698     A.U. after   12 cycles
             Convg  =    0.7794D-08             -V/T =  1.9999
 ExpMin= 9.98D-02 ExpMax= 1.94D+04 ExpMxC= 2.91D+03 IAcc=3 IRadAn=         5 AccDes= 0.00D+00
 HarFok:  IExCor=  205 AccDes= 0.00D+00 IRadAn=         5 IDoV=-2
 ScaDFX=  1.000000  1.000000  1.000000  1.000000
 Range of M.O.s used for correlation:    10    63
 NBasis=    63 NAE=    23 NBE=    23 NFC=     9 NFV=     0
 NROrb=     54 NOA=    14 NOB=    14 NVA=    40 NVB=    40
 Fully direct method using O(ONN) memory.
 JobTyp=1 Pass  1:  I=  10 to  23 NPSUse=  4 ParTrn=T ParDer=T DoDerP=T.
 Spin components of T(2) and E(2):
     alpha-alpha T2 =       0.2057512138D-01 E2=     -0.4679633339D-01
     alpha-beta  T2 =       0.1419240616D+00 E2=     -0.3254970690D+00
     beta-beta   T2 =       0.2057512138D-01 E2=     -0.4679633339D-01
 ANorm=    0.1087692192D+01
 E2 =    -0.4190897357D+00 EUMP2 =    -0.49653772143364D+03
          IDoAtm=111111111111
          Differentiating once with respect to electric field.
                with respect to dipole field.
          Differentiating once with respect to nuclear coordinates.
          Keep R1 ints in memory in canonical form, NReq=2834059.
          There are     1 degrees of freedom in the 1st order CPHF.  IDoFFX=0.
 LinEq1:  Iter=  0 NonCon=     1 RMS=4.87D-03 Max=6.65D-02
 AX will form     1 AO Fock derivatives at one time.
 LinEq1:  Iter=  1 NonCon=     1 RMS=1.17D-03 Max=1.21D-02
 LinEq1:  Iter=  2 NonCon=     1 RMS=2.61D-04 Max=2.33D-03
 LinEq1:  Iter=  3 NonCon=     1 RMS=4.36D-05 Max=3.43D-04
 LinEq1:  Iter=  4 NonCon=     1 RMS=1.37D-05 Max=1.13D-04
 LinEq1:  Iter=  5 NonCon=     1 RMS=3.04D-06 Max=4.23D-05
 LinEq1:  Iter=  6 NonCon=     1 RMS=6.30D-07 Max=7.41D-06
 LinEq1:  Iter=  7 NonCon=     1 RMS=1.51D-07 Max=1.68D-06
 LinEq1:  Iter=  8 NonCon=     1 RMS=2.39D-08 Max=2.27D-07
 LinEq1:  Iter=  9 NonCon=     1 RMS=4.26D-09 Max=4.39D-08
 LinEq1:  Iter= 10 NonCon=     1 RMS=5.85D-10 Max=4.15D-09
 LinEq1:  Iter= 11 NonCon=     1 RMS=1.68D-10 Max=2.86D-09
 LinEq1:  Iter= 12 NonCon=     0 RMS=5.34D-11 Max=6.68D-10
 Linear equations converged to 1.000D-10 1.000D-09 after    12 iterations.
 End of Minotr Frequency-dependent properties file   721 does not exist.
 End of Minotr Frequency-dependent properties file   722 does not exist.
 Calling FoFJK, ICntrl=      2127 FMM=F ISym2X=0 I1Cent= 0 IOpClX= 0 NMat=1 NMatS=1 NMatT=0.
 ***** Axes restored to original set *****
 -------------------------------------------------------------------
 Center     Atomic                   Forces (Hartrees/Bohr)
 Number     Number              X              Y              Z
 -------------------------------------------------------------------
      1        6           0.040976714    0.020133011    0.013874797
      2        6          -0.023255991   -0.000304696    0.001377548
      3        6           0.006231454   -0.022421668    0.001369552
      4        6           0.007778916    0.045007140    0.013917922
      5        1          -0.007412523   -0.001638996   -0.002012454
      6        1          -0.002753322   -0.000558085    0.001148780
      7        1           0.001630800    0.001240316   -0.000744584
      8        1           0.000732137    0.001926587   -0.000763602
      9        1           0.000517081   -0.007571173   -0.002013004
     10        1           0.000242524   -0.002790167    0.001134496
     11       15          -0.032024117   -0.042841312   -0.042858339
     12        1           0.007336327    0.009819043    0.015568889
 -------------------------------------------------------------------
 Cartesian Forces:  Max     0.045007140 RMS     0.017388299

 GradGradGradGradGradGradGradGradGradGradGradGradGradGradGradGradGradGrad
 Berny optimization.
 Using GEDIIS/GDIIS optimizer.
 Internal  Forces:  Max     0.024056624 RMS     0.007121751
 Search for a local minimum.
 Step number   3 out of a maximum of   71
 All quantities printed in internal units (Hartrees-Bohrs-Radians)
 Mixed Optimization -- RFO/linear search
 Update second derivatives using D2CorX and points    2    3
 ITU=  0  1  0
 Use linear search instead of GDIIS.
     Eigenvalues ---    0.01298   0.01649   0.01861   0.03504   0.05733
     Eigenvalues ---    0.06294   0.07020   0.08078   0.08093   0.08451
     Eigenvalues ---    0.10144   0.10228   0.11321   0.11802   0.16000
     Eigenvalues ---    0.16010   0.21953   0.22253   0.25656   0.31163
     Eigenvalues ---    0.31686   0.31720   0.31723   0.31725   0.32240
     Eigenvalues ---    0.34682   0.34714   0.36460   0.54960   0.63281
 RFO step:  Lambda=-1.88586918D-02 EMin= 1.29849975D-02
 Quartic linear search produced a step of  0.28333.
 Iteration  1 RMS(Cart)=  0.04238797 RMS(Int)=  0.00568403
 Iteration  2 RMS(Cart)=  0.00581986 RMS(Int)=  0.00318278
 Iteration  3 RMS(Cart)=  0.00003482 RMS(Int)=  0.00318254
 Iteration  4 RMS(Cart)=  0.00000027 RMS(Int)=  0.00318254
 Variable       Old X    -DE/DX   Delta X   Delta X   Delta X     New X
                                 (Linear)    (Quad)   (Total)
    R1        2.94335  -0.01085   0.02083  -0.04658  -0.02665   2.91671
    R2        2.07705  -0.00097  -0.00691  -0.00101  -0.00792   2.06913
    R3        2.08341  -0.00007  -0.00568   0.00135  -0.00433   2.07908
    R4        3.49039   0.02404   0.11141   0.02988   0.14270   3.63308
    R5        2.59555  -0.01768   0.01015  -0.04577  -0.03755   2.55800
    R6        2.05380   0.00195  -0.00144   0.00670   0.00526   2.05906
    R7        2.94348  -0.01088   0.02082  -0.04668  -0.02675   2.91672
    R8        2.05377   0.00196  -0.00145   0.00674   0.00530   2.05906
    R9        2.07702  -0.00097  -0.00690  -0.00099  -0.00789   2.06913
   R10        2.08345  -0.00008  -0.00569   0.00131  -0.00437   2.07907
   R11        3.49034   0.02406   0.11140   0.02991   0.14271   3.63304
   R12        2.69399   0.00618   0.02698   0.02209   0.04907   2.74306
    A1        1.90908   0.00489  -0.00466   0.02988   0.02480   1.93387
    A2        1.90414   0.00040  -0.00565   0.01333   0.00722   1.91136
    A3        1.83582  -0.00082   0.00083   0.00378   0.00505   1.84086
    A4        1.83929   0.00242  -0.00811   0.02967   0.02093   1.86021
    A5        1.97954  -0.00748   0.00708  -0.07045  -0.06351   1.91603
    A6        1.99518   0.00105   0.01001  -0.00251   0.00736   2.00254
    A7        2.03235   0.00673   0.01458   0.01089   0.02251   2.05486
    A8        2.08543  -0.00270  -0.00387  -0.00174  -0.00418   2.08125
    A9        2.16539  -0.00403  -0.01071  -0.00921  -0.01850   2.14689
   A10        2.03231   0.00673   0.01468   0.01088   0.02260   2.05491
   A11        2.16543  -0.00404  -0.01077  -0.00921  -0.01855   2.14688
   A12        2.08543  -0.00270  -0.00391  -0.00174  -0.00422   2.08121
   A13        1.90908   0.00488  -0.00465   0.02979   0.02471   1.93380
   A14        1.90419   0.00040  -0.00562   0.01333   0.00725   1.91144
   A15        1.83581  -0.00082   0.00079   0.00383   0.00504   1.84084
   A16        1.83935   0.00241  -0.00813   0.02963   0.02087   1.86022
   A17        1.97958  -0.00748   0.00707  -0.07055  -0.06360   1.91597
   A18        1.99504   0.00106   0.01005  -0.00234   0.00756   2.00260
   A19        1.68815  -0.01201  -0.03096  -0.03218  -0.06410   1.62405
   A20        1.94177  -0.00612   0.00298  -0.11868  -0.12957   1.81220
   A21        1.94184  -0.00613   0.00296  -0.11874  -0.12964   1.81220
    D1        2.14834  -0.00209   0.00964   0.00089   0.01039   2.15873
    D2       -0.99866  -0.00328   0.00860  -0.01252  -0.00421  -1.00287
    D3       -2.13125   0.00367  -0.00615   0.05980   0.05393  -2.07732
    D4        1.00493   0.00247  -0.00719   0.04639   0.03934   1.04427
    D5        0.01652   0.00465   0.00322   0.06636   0.06984   0.08636
    D6       -3.13048   0.00345   0.00217   0.05295   0.05524  -3.07524
    D7       -0.02200  -0.00605  -0.00418  -0.08908  -0.08911  -0.11111
    D8       -2.04573   0.00866   0.00737   0.09767   0.10113  -1.94460
    D9       -2.10752  -0.00733  -0.00293  -0.08889  -0.08782  -2.19534
   D10        2.15193   0.00738   0.00862   0.09787   0.10242   2.25436
   D11        2.06627  -0.00552  -0.00497  -0.07148  -0.07239   1.99388
   D12        0.04254   0.00919   0.00658   0.11527   0.11786   0.16039
   D13       -0.00035   0.00001   0.00002   0.00022   0.00024  -0.00011
   D14        3.13563  -0.00124  -0.00107  -0.01392  -0.01498   3.12065
   D15       -3.13626   0.00126   0.00110   0.01428   0.01537  -3.12089
   D16       -0.00028   0.00001   0.00001   0.00014   0.00015  -0.00012
   D17       -2.14787   0.00208  -0.00964  -0.00108  -0.01058  -2.15845
   D18        2.13161  -0.00366   0.00616  -0.05989  -0.05403   2.07759
   D19       -0.01600  -0.00466  -0.00325  -0.06668  -0.07019  -0.08620
   D20        0.99906   0.00328  -0.00859   0.01240   0.00410   1.00316
   D21       -1.00464  -0.00247   0.00720  -0.04641  -0.03935  -1.04399
   D22        3.13093  -0.00347  -0.00220  -0.05320  -0.05551   3.07541
   D23        0.02183   0.00605   0.00419   0.08919   0.08922   0.11105
   D24        2.04551  -0.00865  -0.00734  -0.09754  -0.10097   1.94454
   D25        2.10738   0.00733   0.00292   0.08886   0.08778   2.19516
   D26       -2.15213  -0.00738  -0.00861  -0.09786  -0.10241  -2.25454
   D27       -2.06639   0.00551   0.00496   0.07146   0.07235  -1.99405
   D28       -0.04272  -0.00919  -0.00657  -0.11526  -0.11784  -0.16056
         Item               Value     Threshold  Converged?
 Maximum Force            0.024057     0.000450     NO 
 RMS     Force            0.007122     0.000300     NO 
 Maximum Displacement     0.212783     0.001800     NO 
 RMS     Displacement     0.044251     0.001200     NO 
 Predicted change in Energy=-9.748361D-03
 GradGradGradGradGradGradGradGradGradGradGradGradGradGradGradGradGradGrad

                          Input orientation:                          
 ---------------------------------------------------------------------
 Center     Atomic      Atomic             Coordinates (Angstroms)
 Number     Number       Type             X           Y           Z
 ---------------------------------------------------------------------
      1          6           0       -0.286441    1.143850    0.025234
      2          6           0       -0.043094    2.667680   -0.005974
      3          6           0       -1.126800    3.478797   -0.006408
      4          6           0       -2.520304    2.815858    0.024183
      5          1           0        0.201448    0.654662   -0.824203
      6          1           0        0.164463    0.718233    0.934068
      7          1           0        0.979638    3.043534   -0.007484
      8          1           0       -1.054461    4.566001   -0.008185
      9          1           0       -3.126504    3.145683   -0.825887
     10          1           0       -3.056444    3.128972    0.932451
     11         15           0       -2.192141    0.925973   -0.105213
     12          1           0       -2.573417    0.417401    1.199788
 ---------------------------------------------------------------------
                    Distance matrix (angstroms):
                    1          2          3          4          5
     1  C    0.000000
     2  C    1.543454   0.000000
     3  C    2.481771   1.353636   0.000000
     4  C    2.790297   2.481821   1.543463   0.000000
     5  H    1.094935   2.186673   3.226262   3.577494   0.000000
     6  H    1.100202   2.174190   3.189447   3.526457   1.759808
     7  H    2.283161   1.089610   2.150938   3.507482   2.641839
     8  H    3.507434   2.150928   1.089609   2.283144   4.188289
     9  H    3.577387   3.226168   2.186625   1.094935   4.156976
    10  H    3.526567   3.189626   2.174250   1.100199   4.452180
    11  P    1.922544   2.767994   2.767964   1.922524   2.513926
    12  H    2.671622   3.594460   3.594406   2.671603   3.442776
                    6          7          8          9         10
     6  H    0.000000
     7  H    2.637812   0.000000
     8  H    4.144748   2.540760   0.000000
     9  H    4.452013   4.188152   2.641838   0.000000
    10  H    4.023172   4.144965   2.637762   1.759812   0.000000
    11  P    2.583959   3.814943   3.814909   2.513865   2.583984
    12  H    2.767145   4.580204   4.580099   3.442787   2.767201
                   11         12
    11  P    0.000000
    12  H    1.451566   0.000000
 Stoichiometry    C4H7P
 Framework group  C1[X(C4H7P)]
 Deg. of freedom    30
 Full point group                 C1      NOp   1
 Largest Abelian subgroup         C1      NOp   1
 Largest concise Abelian subgroup C1      NOp   1
                         Standard orientation:                         
 ---------------------------------------------------------------------
 Center     Atomic      Atomic             Coordinates (Angstroms)
 Number     Number       Type             X           Y           Z
 ---------------------------------------------------------------------
      1          6           0       -0.023603    1.395144    0.023903
      2          6           0       -1.389501    0.676758    0.001659
      3          6           0       -1.389406   -0.676878    0.001722
      4          6           0       -0.023438   -1.395153    0.023877
      5          1           0        0.070223    2.078566   -0.826399
      6          1           0        0.052695    2.011507    0.932044
      7          1           0       -2.303275    1.270264    0.005751
      8          1           0       -2.303105   -1.270496    0.005983
      9          1           0        0.070385   -2.078410   -0.826557
     10          1           0        0.052978   -2.011664    0.931903
     11         15           0        1.291991    0.000061   -0.114413
     12          1           0        1.935913    0.000083    1.186513
 ---------------------------------------------------------------------
 Rotational constants (GHZ):      6.1098834      4.3077643      2.6563325
 Standard basis: 6-31G (6D, 7F)
 There are    63 symmetry adapted basis functions of A   symmetry.
 Integral buffers will be    131072 words long.
 Raffenetti 1 integral format.
 Two-electron integral symmetry is turned on.
    63 basis functions,   162 primitive gaussians,    63 cartesian basis functions
    23 alpha electrons       23 beta electrons
       nuclear repulsion energy       212.9673133017 Hartrees.
 NAtoms=   12 NActive=   12 NUniq=   12 SFac= 1.00D+00 NAtFMM=   60 NAOKFM=F Big=F
 One-electron integrals computed using PRISM.
 NBasis=    63 RedAO= T  NBF=    63
 NBsUse=    63 1.00D-06 NBFU=    63
 Initial guess read from the read-write file.
 B after Tr=     0.000000    0.000000    0.000000
         Rot=    1.000000    0.000000    0.000000    0.000000 Ang=   0.00 deg.
 Initial guess orbital symmetries:
       Occupied  (A) (A) (A) (A) (A) (A) (A) (A) (A) (A) (A) (A)
                 (A) (A) (A) (A) (A) (A) (A) (A) (A) (A) (A)
       Virtual   (A) (A) (A) (A) (A) (A) (A) (A) (A) (A) (A) (A)
                 (A) (A) (A) (A) (A) (A) (A) (A) (A) (A) (A) (A)
                 (A) (A) (A) (A) (A) (A) (A) (A) (A) (A) (A) (A)
                 (A) (A) (A) (A)
 Harris functional with IExCor=  205 diagonalized for initial guess.
 ExpMin= 9.98D-02 ExpMax= 1.94D+04 ExpMxC= 2.91D+03 IAcc=2 IRadAn=         4 AccDes= 0.00D+00
 HarFok:  IExCor=  205 AccDes= 0.00D+00 IRadAn=         4 IDoV= 1
 ScaDFX=  1.000000  1.000000  1.000000  1.000000
 FoFCou: FMM=F IPFlag=           0 FMFlag=      100000 FMFlg1=           0
         NFxFlg=           0 DoJE=T BraDBF=F KetDBF=T FulRan=T
         Omega=  0.000000  0.000000  1.000000  0.000000  0.000000 ICntrl=     500 IOpCl=  0
         NMat0=    1 NMatS0=    1 NMatT0=    0 NMatD0=    1 NMtDS0=    0 NMtDT0=    0
         I1Cent=           4 NGrid=           0.
 Petite list used in FoFCou.
 Requested convergence on RMS density matrix=1.00D-08 within 128 cycles.
 Requested convergence on MAX density matrix=1.00D-06.
 Requested convergence on             energy=1.00D-06.
 No special actions if energy rises.
 Keep R1 ints in memory in canonical form, NReq=2864076.
 SCF Done:  E(RHF) =  -496.133764781     A.U. after   11 cycles
             Convg  =    0.4425D-08             -V/T =  2.0002
 ExpMin= 9.98D-02 ExpMax= 1.94D+04 ExpMxC= 2.91D+03 IAcc=3 IRadAn=         5 AccDes= 0.00D+00
 HarFok:  IExCor=  205 AccDes= 0.00D+00 IRadAn=         5 IDoV=-2
 ScaDFX=  1.000000  1.000000  1.000000  1.000000
 Range of M.O.s used for correlation:    10    63
 NBasis=    63 NAE=    23 NBE=    23 NFC=     9 NFV=     0
 NROrb=     54 NOA=    14 NOB=    14 NVA=    40 NVB=    40
 Fully direct method using O(ONN) memory.
 JobTyp=1 Pass  1:  I=  10 to  23 NPSUse=  4 ParTrn=T ParDer=T DoDerP=T.
 Spin components of T(2) and E(2):
     alpha-alpha T2 =       0.2050544318D-01 E2=     -0.4657148631D-01
     alpha-beta  T2 =       0.1430129876D+00 E2=     -0.3260478594D+00
     beta-beta   T2 =       0.2050544318D-01 E2=     -0.4657148631D-01
 ANorm=    0.1088128611D+01
 E2 =    -0.4191908320D+00 EUMP2 =    -0.49655295561269D+03
          IDoAtm=111111111111
          Differentiating once with respect to electric field.
                with respect to dipole field.
          Differentiating once with respect to nuclear coordinates.
          Keep R1 ints in memory in canonical form, NReq=2834059.
          There are     1 degrees of freedom in the 1st order CPHF.  IDoFFX=0.
 LinEq1:  Iter=  0 NonCon=     1 RMS=4.89D-03 Max=5.21D-02
 AX will form     1 AO Fock derivatives at one time.
 LinEq1:  Iter=  1 NonCon=     1 RMS=1.18D-03 Max=1.13D-02
 LinEq1:  Iter=  2 NonCon=     1 RMS=2.72D-04 Max=2.46D-03
 LinEq1:  Iter=  3 NonCon=     1 RMS=4.64D-05 Max=4.32D-04
 LinEq1:  Iter=  4 NonCon=     1 RMS=1.54D-05 Max=1.30D-04
 LinEq1:  Iter=  5 NonCon=     1 RMS=2.85D-06 Max=3.79D-05
 LinEq1:  Iter=  6 NonCon=     1 RMS=3.66D-07 Max=4.04D-06
 LinEq1:  Iter=  7 NonCon=     1 RMS=6.17D-08 Max=7.81D-07
 LinEq1:  Iter=  8 NonCon=     1 RMS=9.71D-09 Max=8.09D-08
 LinEq1:  Iter=  9 NonCon=     1 RMS=1.25D-09 Max=9.15D-09
 LinEq1:  Iter= 10 NonCon=     1 RMS=2.93D-10 Max=2.42D-09
 LinEq1:  Iter= 11 NonCon=     0 RMS=6.00D-11 Max=4.02D-10
 Linear equations converged to 1.000D-10 1.000D-09 after    11 iterations.
 End of Minotr Frequency-dependent properties file   721 does not exist.
 End of Minotr Frequency-dependent properties file   722 does not exist.
 Calling FoFJK, ICntrl=      2127 FMM=F ISym2X=0 I1Cent= 0 IOpClX= 0 NMat=1 NMatS=1 NMatT=0.
 ***** Axes restored to original set *****
 -------------------------------------------------------------------
 Center     Atomic                   Forces (Hartrees/Bohr)
 Number     Number              X              Y              Z
 -------------------------------------------------------------------
      1        6           0.013816544    0.013423889    0.005009882
      2        6          -0.005048047   -0.008245114    0.000775572
      3        6          -0.006490612   -0.007151597    0.000780364
      4        6           0.008992976    0.017043647    0.004999947
      5        1          -0.001781820   -0.001457914   -0.003131777
      6        1          -0.004414633   -0.002304386    0.001468717
      7        1           0.000814322   -0.000162689   -0.000561400
      8        1          -0.000384557    0.000736971   -0.000569208
      9        1          -0.000898413   -0.002119344   -0.003129050
     10        1          -0.000964145   -0.004885185    0.001472457
     11       15          -0.008348708   -0.011168183   -0.010377205
     12        1           0.004707093    0.006289906    0.003261702
 -------------------------------------------------------------------
 Cartesian Forces:  Max     0.017043647 RMS     0.006327004

 GradGradGradGradGradGradGradGradGradGradGradGradGradGradGradGradGradGrad
 Berny optimization.
 Using GEDIIS/GDIIS optimizer.
 Internal  Forces:  Max     0.008705768 RMS     0.002718353
 Search for a local minimum.
 Step number   4 out of a maximum of   71
 All quantities printed in internal units (Hartrees-Bohrs-Radians)
 Mixed Optimization -- RFO/linear search
 Update second derivatives using D2CorX and points    3    4
 DE= -1.52D-02 DEPred=-9.75D-03 R= 1.56D+00
 SS=  1.41D+00  RLast= 4.82D-01 DXNew= 8.4853D-01 1.4469D+00
 Trust test= 1.56D+00 RLast= 4.82D-01 DXMaxT set to 8.49D-01
 ITU=  1  0  1  0
 Use linear search instead of GDIIS.
     Eigenvalues ---    0.01290   0.01648   0.01843   0.03478   0.04944
     Eigenvalues ---    0.05696   0.07138   0.07907   0.07932   0.07967
     Eigenvalues ---    0.10167   0.10260   0.11657   0.11675   0.15995
     Eigenvalues ---    0.16018   0.21939   0.22390   0.24594   0.27700
     Eigenvalues ---    0.31199   0.31720   0.31724   0.31756   0.31855
     Eigenvalues ---    0.34432   0.34714   0.34940   0.56265   0.63064
 RFO step:  Lambda=-2.33583294D-03 EMin= 1.28958721D-02
 Quartic linear search produced a step of  0.42447.
 Iteration  1 RMS(Cart)=  0.03733726 RMS(Int)=  0.00287442
 Iteration  2 RMS(Cart)=  0.00210788 RMS(Int)=  0.00195781
 Iteration  3 RMS(Cart)=  0.00000487 RMS(Int)=  0.00195780
 Iteration  4 RMS(Cart)=  0.00000002 RMS(Int)=  0.00195780
 Variable       Old X    -DE/DX   Delta X   Delta X   Delta X     New X
                                 (Linear)    (Quad)   (Total)
    R1        2.91671  -0.00870  -0.01131  -0.02227  -0.03383   2.88287
    R2        2.06913   0.00229  -0.00336   0.01069   0.00733   2.07646
    R3        2.07908   0.00030  -0.00184   0.00087  -0.00096   2.07811
    R4        3.63308   0.00333   0.06057  -0.00520   0.05576   3.68884
    R5        2.55800   0.00057  -0.01594   0.01486  -0.00161   2.55639
    R6        2.05906   0.00071   0.00223   0.00044   0.00267   2.06174
    R7        2.91672  -0.00871  -0.01136  -0.02226  -0.03387   2.88285
    R8        2.05906   0.00071   0.00225   0.00043   0.00268   2.06174
    R9        2.06913   0.00229  -0.00335   0.01069   0.00734   2.07647
   R10        2.07907   0.00030  -0.00186   0.00089  -0.00097   2.07810
   R11        3.63304   0.00334   0.06058  -0.00519   0.05577   3.68882
   R12        2.74306  -0.00051   0.02083  -0.01023   0.01060   2.75367
    A1        1.93387   0.00225   0.01053   0.01032   0.02036   1.95423
    A2        1.91136   0.00242   0.00306   0.02495   0.02759   1.93895
    A3        1.84086  -0.00125   0.00214  -0.00719  -0.00500   1.83586
    A4        1.86021   0.00145   0.00888   0.01524   0.02272   1.88293
    A5        1.91603  -0.00221  -0.02696   0.00338  -0.02351   1.89252
    A6        2.00254  -0.00250   0.00312  -0.04573  -0.04271   1.95983
    A7        2.05486   0.00177   0.00955   0.00348   0.01204   2.06689
    A8        2.08125  -0.00131  -0.00178  -0.00664  -0.00794   2.07331
    A9        2.14689  -0.00047  -0.00785   0.00323  -0.00414   2.14276
   A10        2.05491   0.00176   0.00959   0.00342   0.01201   2.06692
   A11        2.14688  -0.00046  -0.00787   0.00326  -0.00413   2.14275
   A12        2.08121  -0.00131  -0.00179  -0.00660  -0.00791   2.07329
   A13        1.93380   0.00225   0.01049   0.01038   0.02038   1.95418
   A14        1.91144   0.00242   0.00308   0.02490   0.02755   1.93899
   A15        1.84084  -0.00125   0.00214  -0.00716  -0.00498   1.83586
   A16        1.86022   0.00145   0.00886   0.01525   0.02270   1.88293
   A17        1.91597  -0.00222  -0.02700   0.00344  -0.02348   1.89249
   A18        2.00260  -0.00250   0.00321  -0.04583  -0.04272   1.95988
   A19        1.62405  -0.00130  -0.02721   0.00780  -0.02073   1.60332
   A20        1.81220  -0.00435  -0.05500  -0.02826  -0.09169   1.72051
   A21        1.81220  -0.00435  -0.05503  -0.02821  -0.09167   1.72053
    D1        2.15873  -0.00085   0.00441   0.00347   0.00732   2.16605
    D2       -1.00287  -0.00163  -0.00179   0.00761   0.00532  -0.99755
    D3       -2.07732   0.00374   0.02289   0.04349   0.06677  -2.01055
    D4        1.04427   0.00296   0.01670   0.04763   0.06478   1.10905
    D5        0.08636   0.00134   0.02965  -0.00176   0.02773   0.11409
    D6       -3.07524   0.00056   0.02345   0.00238   0.02574  -3.04950
    D7       -0.11111  -0.00155  -0.03783   0.00207  -0.03329  -0.14439
    D8       -1.94460   0.00384   0.04293   0.03265   0.07291  -1.87168
    D9       -2.19534  -0.00235  -0.03728  -0.00781  -0.04239  -2.23774
   D10        2.25436   0.00304   0.04347   0.02277   0.06380   2.31816
   D11        1.99388  -0.00088  -0.03073   0.00109  -0.02727   1.96661
   D12        0.16039   0.00450   0.05003   0.03167   0.07893   0.23932
   D13       -0.00011   0.00000   0.00010  -0.00007   0.00003  -0.00009
   D14        3.12065  -0.00082  -0.00636   0.00422  -0.00202   3.11864
   D15       -3.12089   0.00082   0.00652  -0.00426   0.00214  -3.11875
   D16       -0.00012   0.00000   0.00006   0.00003   0.00010  -0.00003
   D17       -2.15845   0.00085  -0.00449  -0.00348  -0.00741  -2.16586
   D18        2.07759  -0.00374  -0.02293  -0.04352  -0.06684   2.01075
[...]
    A9        2.14059  -0.00001  -0.00003  -0.00004  -0.00008   2.14051
   A10        2.05637   0.00000   0.00007   0.00000   0.00007   2.05644
   A11        2.14059  -0.00001  -0.00003  -0.00004  -0.00008   2.14051
   A12        2.08562   0.00001  -0.00004   0.00005   0.00001   2.08563
   A13        1.95156   0.00000   0.00000   0.00002   0.00001   1.95157
   A14        1.96660   0.00000   0.00001  -0.00002  -0.00001   1.96659
   A15        1.84662   0.00000   0.00000   0.00004   0.00004   1.84666
   A16        1.88127   0.00000   0.00007  -0.00004   0.00003   1.88130
   A17        1.89973   0.00000  -0.00007  -0.00003  -0.00010   1.89963
   A18        1.91726   0.00000  -0.00001   0.00003   0.00002   1.91728
   A19        1.58520  -0.00001   0.00008  -0.00006   0.00002   1.58522
   A20        1.67350   0.00000   0.00017  -0.00003   0.00014   1.67364
   A21        1.67348   0.00001   0.00017  -0.00002   0.00015   1.67363
    D1        1.89970   0.00000   0.00051   0.00002   0.00053   1.90023
    D2       -1.20537   0.00000   0.00044   0.00004   0.00048  -1.20488
    D3       -2.26125   0.00000   0.00061  -0.00004   0.00057  -2.26067
    D4        0.91687   0.00000   0.00054  -0.00001   0.00053   0.91740
    D5       -0.16596   0.00000   0.00060   0.00001   0.00061  -0.16535
    D6        3.01216   0.00000   0.00052   0.00004   0.00056   3.01273
    D7        0.20964   0.00000  -0.00076  -0.00002  -0.00077   0.20887
    D8       -1.46589  -0.00001  -0.00094   0.00001  -0.00093  -1.46682
    D9       -1.89019   0.00000  -0.00072  -0.00005  -0.00077  -1.89096
   D10        2.71747  -0.00001  -0.00090  -0.00002  -0.00092   2.71654
   D11        2.33694   0.00000  -0.00076   0.00000  -0.00076   2.33618
   D12        0.66141   0.00000  -0.00094   0.00003  -0.00091   0.66049
   D13        0.00002   0.00000   0.00000  -0.00001  -0.00001   0.00001
   D14       -3.10383   0.00000  -0.00008   0.00003  -0.00005  -3.10388
   D15        3.10385   0.00000   0.00007  -0.00003   0.00004   3.10389
   D16        0.00000   0.00000   0.00000   0.00000   0.00000   0.00000
   D17       -1.89975   0.00000  -0.00050   0.00000  -0.00051  -1.90025
   D18        2.26120   0.00000  -0.00060   0.00005  -0.00055   2.26064
   D19        0.16593   0.00000  -0.00059   0.00000  -0.00060   0.16533
   D20        1.20534   0.00000  -0.00043  -0.00003  -0.00047   1.20487
   D21       -0.91691   0.00000  -0.00053   0.00002  -0.00051  -0.91742
   D22       -3.01218   0.00000  -0.00052  -0.00003  -0.00056  -3.01273
   D23       -0.20963   0.00000   0.00075   0.00001   0.00077  -0.20886
   D24        1.46592   0.00001   0.00094  -0.00002   0.00092   1.46683
   D25        1.89022   0.00000   0.00071   0.00004   0.00076   1.89097
   D26       -2.71742   0.00001   0.00090   0.00001   0.00090  -2.71651
   D27       -2.33690   0.00000   0.00075  -0.00001   0.00074  -2.33616
   D28       -0.66135   0.00000   0.00093  -0.00004   0.00089  -0.66046
         Item               Value     Threshold  Converged?
 Maximum Force            0.000037     0.000450     YES
 RMS     Force            0.000007     0.000300     YES
 Maximum Displacement     0.001670     0.001800     YES
 RMS     Displacement     0.000512     0.001200     YES
 Predicted change in Energy=-2.179738D-08
 Optimization completed.
    -- Stationary point found.
                           ----------------------------
                           !   Optimized Parameters   !
                           ! (Angstroms and Degrees)  !
 --------------------------                            --------------------------
 ! Name  Definition              Value          Derivative Info.                !
 --------------------------------------------------------------------------------
 ! R1    R(1,2)                  1.5215         -DE/DX =    0.0                 !
 ! R2    R(1,5)                  1.0996         -DE/DX =    0.0                 !
 ! R3    R(1,6)                  1.0987         -DE/DX =    0.0                 !
 ! R4    R(1,11)                 1.9482         -DE/DX =    0.0                 !
 ! R5    R(2,3)                  1.3548         -DE/DX =    0.0                 !
 ! R6    R(2,7)                  1.0911         -DE/DX =    0.0                 !
 ! R7    R(3,4)                  1.5215         -DE/DX =    0.0                 !
 ! R8    R(3,8)                  1.0911         -DE/DX =    0.0                 !
 ! R9    R(4,9)                  1.0996         -DE/DX =    0.0                 !
 ! R10   R(4,10)                 1.0987         -DE/DX =    0.0                 !
 ! R11   R(4,11)                 1.9482         -DE/DX =    0.0                 !
 ! R12   R(11,12)                1.4557         -DE/DX =    0.0                 !
 ! A1    A(2,1,5)              111.8149         -DE/DX =    0.0                 !
 ! A2    A(2,1,6)              112.6787         -DE/DX =    0.0                 !
 ! A3    A(2,1,11)             105.8041         -DE/DX =    0.0                 !
 ! A4    A(5,1,6)              107.7888         -DE/DX =    0.0                 !
 ! A5    A(5,1,11)             108.846          -DE/DX =    0.0                 !
 ! A6    A(6,1,11)             109.8515         -DE/DX =    0.0                 !
 ! A7    A(1,2,3)              117.8209         -DE/DX =    0.0                 !
 ! A8    A(1,2,7)              119.4976         -DE/DX =    0.0                 !
 ! A9    A(3,2,7)              122.6466         -DE/DX =    0.0                 !
 ! A10   A(2,3,4)              117.8211         -DE/DX =    0.0                 !
 ! A11   A(2,3,8)              122.6465         -DE/DX =    0.0                 !
 ! A12   A(4,3,8)              119.4975         -DE/DX =    0.0                 !
 ! A13   A(3,4,9)              111.8159         -DE/DX =    0.0                 !
 ! A14   A(3,4,10)             112.6779         -DE/DX =    0.0                 !
 ! A15   A(3,4,11)             105.8037         -DE/DX =    0.0                 !
 ! A16   A(9,4,10)             107.7891         -DE/DX =    0.0                 !
 ! A17   A(9,4,11)             108.8466         -DE/DX =    0.0                 !
 ! A18   A(10,4,11)            109.8509         -DE/DX =    0.0                 !
 ! A19   A(1,11,4)              90.8255         -DE/DX =    0.0                 !
 ! A20   A(1,11,12)             95.8844         -DE/DX =    0.0                 !
 ! A21   A(4,11,12)             95.8835         -DE/DX =    0.0                 !
 ! D1    D(5,1,2,3)            108.8448         -DE/DX =    0.0                 !
 ! D2    D(5,1,2,7)            -69.0624         -DE/DX =    0.0                 !
 ! D3    D(6,1,2,3)           -129.56           -DE/DX =    0.0                 !
 ! D4    D(6,1,2,7)             52.5328         -DE/DX =    0.0                 !
 ! D5    D(11,1,2,3)            -9.5085         -DE/DX =    0.0                 !
 ! D6    D(11,1,2,7)           172.5843         -DE/DX =    0.0                 !
 ! D7    D(2,1,11,4)            12.0115         -DE/DX =    0.0                 !
 ! D8    D(2,1,11,12)          -83.9895         -DE/DX =    0.0                 !
 ! D9    D(5,1,11,4)          -108.2997         -DE/DX =    0.0                 !
 ! D10   D(5,1,11,12)          155.6993         -DE/DX =    0.0                 !
 ! D11   D(6,1,11,4)           133.8967         -DE/DX =    0.0                 !
 ! D12   D(6,1,11,12)           37.8957         -DE/DX =    0.0                 !
 ! D13   D(1,2,3,4)              0.001          -DE/DX =    0.0                 !
 ! D14   D(1,2,3,8)           -177.8365         -DE/DX =    0.0                 !
 ! D15   D(7,2,3,4)            177.8376         -DE/DX =    0.0                 !
 ! D16   D(7,2,3,8)              0.0001         -DE/DX =    0.0                 !
 ! D17   D(2,3,4,9)           -108.8474         -DE/DX =    0.0                 !
 ! D18   D(2,3,4,10)           129.557          -DE/DX =    0.0                 !
 ! D19   D(2,3,4,11)             9.507          -DE/DX =    0.0                 !
 ! D20   D(8,3,4,9)             69.0606         -DE/DX =    0.0                 !
 ! D21   D(8,3,4,10)           -52.535          -DE/DX =    0.0                 !
 ! D22   D(8,3,4,11)          -172.585          -DE/DX =    0.0                 !
 ! D23   D(3,4,11,1)           -12.011          -DE/DX =    0.0                 !
 ! D24   D(3,4,11,12)           83.9908         -DE/DX =    0.0                 !
 ! D25   D(9,4,11,1)           108.3015         -DE/DX =    0.0                 !
 ! D26   D(9,4,11,12)         -155.6966         -DE/DX =    0.0                 !
 ! D27   D(10,4,11,1)         -133.8947         -DE/DX =    0.0                 !
 ! D28   D(10,4,11,12)         -37.8928         -DE/DX =    0.0                 !
 --------------------------------------------------------------------------------
 GradGradGradGradGradGradGradGradGradGradGradGradGradGradGradGradGradGrad

                          Input orientation:                          
 ---------------------------------------------------------------------
 Center     Atomic      Atomic             Coordinates (Angstroms)
 Number     Number       Type             X           Y           Z
 ---------------------------------------------------------------------
      1          6           0       -0.302226    1.135483   -0.066055
      2          6           0       -0.070719    2.629917    0.101413
      3          6           0       -1.155317    3.441730    0.100871
      4          6           0       -2.523809    2.798321   -0.067142
      5          1           0        0.033041    0.777823   -1.050323
      6          1           0        0.210986    0.538763    0.700597
      7          1           0        0.948935    3.009955    0.181692
      8          1           0       -1.078129    4.527199    0.180677
      9          1           0       -2.960877    3.018732   -1.051771
     10          1           0       -3.241442    3.122888    0.698936
     11         15           0       -2.228202    0.877877    0.074574
     12          1           0       -2.266298    0.827957    1.528901
 ---------------------------------------------------------------------
                    Distance matrix (angstroms):
                    1          2          3          4          5
     1  C    0.000000
     2  C    1.521504   0.000000
     3  C    2.464631   1.354766   0.000000
     4  C    2.774971   2.464633   1.521504   0.000000
     5  H    1.099594   2.183464   3.135896   3.403900   0.000000
     6  H    1.098734   2.193468   3.263996   3.629618   1.776100
     7  H    2.267251   1.091132   2.149614   3.488074   2.709083
     8  H    3.488072   2.149613   1.091132   2.267250   4.099741
     9  H    3.403923   3.135925   2.183474   1.099593   3.739682
    10  H    3.629598   3.263976   2.193459   1.098734   4.391068
    11  P    1.948211   2.779406   2.779410   1.948224   2.527573
    12  H    2.548733   3.178891   3.178893   2.548726   3.455701
                    6          7          8          9         10
     6  H    0.000000
     7  H    2.630707   0.000000
     8  H    4.223714   2.532000   0.000000
     9  H    4.391100   4.099774   2.709085   0.000000
    10  H    4.312420   4.223690   2.630705   1.776102   0.000000
    11  P    2.540973   3.827720   3.827725   2.527593   2.540976
    12  H    2.628052   4.112641   4.112645   3.455692   2.628014
                   11         12
    11  P    0.000000
    12  H    1.455682   0.000000
 Stoichiometry    C4H7P
 Framework group  C1[X(C4H7P)]
 Deg. of freedom    30
 Full point group                 C1      NOp   1
 Largest Abelian subgroup         C1      NOp   1
 Largest concise Abelian subgroup C1      NOp   1
                         Standard orientation:                         
 ---------------------------------------------------------------------
 Center     Atomic      Atomic             Coordinates (Angstroms)
 Number     Number       Type             X           Y           Z
 ---------------------------------------------------------------------
      1          6           0       -0.042214    1.387483   -0.124879
      2          6           0       -1.373387    0.677396    0.071920
      3          6           0       -1.373402   -0.677370    0.071909
      4          6           0       -0.042245   -1.387488   -0.124878
      5          1           0        0.021754    1.869823   -1.110964
      6          1           0        0.144642    2.156219    0.637581
      7          1           0       -2.286675    1.266023    0.171891
      8          1           0       -2.286704   -1.265977    0.171869
      9          1           0        0.021727   -1.869859   -1.110946
     10          1           0        0.144590   -2.156201    0.637611
     11         15           0        1.320856   -0.000008   -0.013380
     12          1           0        1.415322   -0.000024    1.439234
 ---------------------------------------------------------------------
 Rotational constants (GHZ):      6.1038316      4.2935023      2.6790734

 **********************************************************************

            Population analysis using the SCF density.

 **********************************************************************

 Orbital symmetries:
       Occupied  (A) (A) (A) (A) (A) (A) (A) (A) (A) (A) (A) (A)
                 (A) (A) (A) (A) (A) (A) (A) (A) (A) (A) (A)
       Virtual   (A) (A) (A) (A) (A) (A) (A) (A) (A) (A) (A) (A)
                 (A) (A) (A) (A) (A) (A) (A) (A) (A) (A) (A) (A)
                 (A) (A) (A) (A) (A) (A) (A) (A) (A) (A) (A) (A)
                 (A) (A) (A) (A)
 The electronic state is 1-A.
 Alpha  occ. eigenvalues --  -79.94055 -11.24753 -11.24747 -11.24663 -11.24520
 Alpha  occ. eigenvalues --   -7.49591  -5.38889  -5.38807  -5.38630  -1.10305
 Alpha  occ. eigenvalues --   -0.96744  -0.92288  -0.75926  -0.72558  -0.65534
 Alpha  occ. eigenvalues --   -0.60136  -0.56632  -0.54203  -0.50392  -0.46316
 Alpha  occ. eigenvalues --   -0.42929  -0.35019  -0.34626
 Alpha virt. eigenvalues --    0.15938   0.17558   0.18010   0.24690   0.27002
 Alpha virt. eigenvalues --    0.28696   0.29311   0.30601   0.32270   0.33011
 Alpha virt. eigenvalues --    0.36671   0.46962   0.50107   0.51947   0.53137
 Alpha virt. eigenvalues --    0.61888   0.65066   0.74645   0.78024   0.81863
 Alpha virt. eigenvalues --    0.86082   0.87877   0.89682   0.90714   0.93768
 Alpha virt. eigenvalues --    0.95792   1.03236   1.09785   1.14568   1.15516
 Alpha virt. eigenvalues --    1.16318   1.20224   1.22479   1.23263   1.23666
 Alpha virt. eigenvalues --    1.24871   1.37814   1.54115   1.63520   1.64391
          Condensed to atoms (all electrons):
              1          2          3          4          5          6
     1  C    5.641751   0.214172  -0.040128  -0.074108   0.370040   0.373345
     2  C    0.214172   5.154025   0.598440  -0.040128  -0.039330  -0.031395
     3  C   -0.040128   0.598440   5.154028   0.214171  -0.002175  -0.000290
     4  C   -0.074108  -0.040128   0.214171   5.641742   0.001459   0.002750
     5  H    0.370040  -0.039330  -0.002175   0.001459   0.525072  -0.028699
     6  H    0.373345  -0.031395  -0.000290   0.002750  -0.028699   0.525612
     7  H   -0.027814   0.378632  -0.029380   0.004086   0.000330  -0.000905
     8  H    0.004086  -0.029380   0.378632  -0.027814  -0.000122  -0.000118
     9  H    0.001459  -0.002174  -0.039327   0.370039   0.000392  -0.000100
    10  H    0.002750  -0.000290  -0.031397   0.373346  -0.000100   0.000023
    11  P    0.261828  -0.070682  -0.070683   0.261832  -0.024073  -0.026933
    12  H   -0.047220   0.001869   0.001869  -0.047221   0.001781  -0.004765
              7          8          9         10         11         12
     1  C   -0.027814   0.004086   0.001459   0.002750   0.261828  -0.047220
     2  C    0.378632  -0.029380  -0.002174  -0.000290  -0.070682   0.001869
     3  C   -0.029380   0.378632  -0.039327  -0.031397  -0.070683   0.001869
     4  C    0.004086  -0.027814   0.370039   0.373346   0.261832  -0.047221
     5  H    0.000330  -0.000122   0.000392  -0.000100  -0.024073   0.001781
     6  H   -0.000905  -0.000118  -0.000100   0.000023  -0.026933  -0.004765
     7  H    0.482565   0.000356  -0.000122  -0.000118   0.004242  -0.000070
     8  H    0.000356   0.482565   0.000330  -0.000905   0.004242  -0.000070
     9  H   -0.000122   0.000330   0.525070  -0.028700  -0.024072   0.001781
    10  H   -0.000118  -0.000905  -0.028700   0.525616  -0.026934  -0.004765
    11  P    0.004242   0.004242  -0.024072  -0.026934  13.827610   0.345659
    12  H   -0.000070  -0.000070   0.001781  -0.004765   0.345659   0.811470
 Mulliken atomic charges:
              1
     1  C   -0.680160
     2  C   -0.133759
     3  C   -0.133760
     4  C   -0.680155
     5  H    0.195425
     6  H    0.191474
     7  H    0.188196
     8  H    0.188196
     9  H    0.195424
    10  H    0.191474
    11  P    0.537963
    12  H   -0.060318
 Sum of Mulliken atomic charges =   0.00000
 Mulliken charges with hydrogens summed into heavy atoms:
              1
     1  C   -0.293261
     2  C    0.054437
     3  C    0.054436
     4  C   -0.293257
    11  P    0.477645
 Sum of Mulliken charges with hydrogens summed into heavy atoms =   0.00000
 Electronic spatial extent (au):  <R**2>=            499.5893
 Charge=              0.0000 electrons
 Dipole moment (field-independent basis, Debye):
    X=             -1.4231    Y=              0.0000    Z=              0.3536  Tot=              1.4664
 Quadrupole moment (field-independent basis, Debye-Ang):
   XX=            -42.3995   YY=            -36.1204   ZZ=            -40.6070
   XY=              0.0001   XZ=              1.4404   YZ=              0.0000
 Traceless Quadrupole moment (field-independent basis, Debye-Ang):
   XX=             -2.6905   YY=              3.5885   ZZ=             -0.8980
   XY=              0.0001   XZ=              1.4404   YZ=              0.0000
 Octapole moment (field-independent basis, Debye-Ang**2):
  XXX=            -17.5995  YYY=              0.0002  ZZZ=             -2.8937  XYY=             -1.5397
  XXY=              0.0001  XXZ=              5.0974  XZZ=              0.9144  YZZ=              0.0000
  YYZ=              0.7664  XYZ=             -0.0001
 Hexadecapole moment (field-independent basis, Debye-Ang**3):
 XXXX=           -373.7213 YYYY=           -276.4269 ZZZZ=            -76.7102 XXXY=              0.0003
 XXXZ=              6.4725 YYYX=             -0.0001 YYYZ=              0.0003 ZZZX=              0.4630
 ZZZY=             -0.0001 XXYY=            -99.9722 XXZZ=            -79.9999 YYZZ=            -55.0850
 XXYZ=              0.0001 YYXZ=              0.3197 ZZXY=              0.0001
 N-N= 2.131243425895D+02 E-N=-1.599534365540D+03  KE= 4.960551271760D+02
 1|1|UNPC-DESKTOP-U91BT1E|FOpt|RMP2-FC|6-31G|C4H7P1|AKI|11-Apr-2023|0||
 # opt mp2/6-31g geom=connectivity||Title Card Required||0,1|C,-0.30222
 55413,1.1354828165,-0.0660551685|C,-0.0707194859,2.6299168688,0.101413
 458|C,-1.1553167407,3.4417301242,0.1008711925|C,-2.5238085837,2.798321
 4509,-0.0671420585|H,0.0330411719,0.7778230651,-1.0503225706|H,0.21098
 61155,0.5387630235,0.7005965507|H,0.9489354704,3.0099547615,0.18169165
 17|H,-1.0781291793,4.5271991675,0.180676623|H,-2.9608773063,3.01873205
 88,-1.0517711371|H,-3.2414423225,3.1228876064,0.6989357277|P,-2.228202
 4109,0.8778765066,0.0745738333|H,-2.2662978772,0.8279567303,1.52890125
 78||Version=EM64W-G09RevC.01|State=1-A|HF=-496.1379109|MP2=-496.558052
 9|RMSD=2.437e-009|RMSF=1.228e-005|Dipole=0.3442689,0.460043,0.1504319|
 PG=C01 [X(C4H7P1)]||@


 The most important thing in communication is to hear what isn't being said.
 -- Peter F. Drucker
 Job cpu time:  0 days  0 hours  1 minutes 12.0 seconds.
 File lengths (MBytes):  RWF=      5 Int=      0 D2E=      0 Chk=      2 Scr=      1
 Normal termination of Gaussian 09 at Tue Apr 11 10:46:31 2023.
